 argument  1 = /Users/apple/Desktop/王应泽/本科生科研/Science_Denmark/复现/NWChem_calc/CF3/CF3.nw



============================== echo of input deck ==============================
echo
title CF3_ESP_Calculation
start CF3

geometry
	C	-1.81231958686      	-0.806223678853     	1.43772946144
	N	-2.10316466204      	0.128594971946      	0.272695544056
	C	-2.26244593796      	-0.692008437376     	-0.998923976156
	C	-0.991574723604     	1.18714982212       	0.116963068565
	C	0.400193755904      	0.674340151638      	-0.164129613724
	C	1.282091983         	0.383030593299      	0.887815725916
	C	2.56837402119       	-0.0976044183765    	0.627031234387
	C	3.00289814569       	-0.298053674218     	-0.690418943375
	C	4.40385172642       	-0.794955471925     	-0.97246811304
	F	5.29603696293       	0.22350042616       	-1.08964537354
	F	4.88036260209       	-1.60984472085      	0.00787716390207
	F	4.48586907185       	-1.50994317923      	-2.12756488149
	C	2.13072905276       	0.0134815645377     	-1.74252908455
	C	0.844201349357      	0.494174353615      	-1.4830652673
	C	-3.41462561762      	0.859833556139      	0.549240883065
	H	-1.64608779413      	-0.20247908961      	2.33461801135
	H	-0.930642642477     	-1.40796870054      	1.20277660343
	H	-2.67710585921      	-1.46234680128      	1.57765505731
	H	-1.36510476792      	-1.29767363639      	-1.14924080703
	H	-3.13108957351      	-1.34718791536      	-0.880060624624
	H	-2.41688704897      	-0.0069148567265    	-1.83757817481
	H	-1.30744429114      	1.86114215522       	-0.690067515555
	H	-0.987702514275     	1.78005339915       	1.04096911841
	H	0.989014698471      	0.537702933186      	1.92515257239
	H	3.24076665971       	-0.311352790631     	1.45893219109
	H	2.45875879731       	-0.112855793699     	-2.77514371282
	H	0.203248676481      	0.737144192359      	-2.32925104879
	H	-3.30138249324      	1.43824456041       	1.47101843655
	H	-3.6277899525       	1.52108993679       	-0.295956788726
	H	-4.21103003771      	0.1179305485        	0.661573358722
end

charge 1

basis
	* library 6-31G*
end

dft
	xc b3lyp
	maxiter 1000
end
task dft optimize

esp
	recalculate
	range 0.2
	probe 0.1
	spacing 0.025
end
task esp
================================================================================


                                         
                                         


             Northwest Computational Chemistry Package (NWChem) 7.0.0
             --------------------------------------------------------


                    Environmental Molecular Sciences Laboratory
                       Pacific Northwest National Laboratory
                                Richland, WA 99352

                              Copyright (c) 1994-2019
                       Pacific Northwest National Laboratory
                            Battelle Memorial Institute

             NWChem is an open-source computational chemistry package
                        distributed under the terms of the
                      Educational Community License (ECL) 2.0
             A copy of the license is included with this distribution
                              in the LICENSE.TXT file

                                  ACKNOWLEDGMENT
                                  --------------

            This software and its documentation were developed at the
            EMSL at Pacific Northwest National Laboratory, a multiprogram
            national laboratory, operated for the U.S. Department of Energy
            by Battelle under Contract Number DE-AC05-76RL01830. Support
            for this work was provided by the Department of Energy Office
            of Biological and Environmental Research, Office of Basic
            Energy Sciences, and the Office of Advanced Scientific Computing.


           Job information
           ---------------

    hostname        = appledeMacBook-Pro.local
    program         = nwchem
    date            = Wed Jul 22 12:47:11 2020

    compiled        = Fri_Jul_03_06:05:09_2020
    source          = /private/tmp/nwchem-20200703-71421-tc8c0i/nwchem-7.0.0
    nwchem branch   = 7.0.0
    nwchem revision = 2c9a1c7c
    ga revision     = 5.7.1
    use scalapack   = T
    input           = /Users/apple/Desktop/王应泽/本科生科研/Science_Denmark/复现/NWChem_calc/CF3/CF3.nw
    prefix          = CF3.
    data base       = ./CF3.db
    status          = startup
    nproc           =        1
    time left       =     -1s



           Memory information
           ------------------

    heap     =   13107196 doubles =    100.0 Mbytes
    stack    =   13107201 doubles =    100.0 Mbytes
    global   =   26214400 doubles =    200.0 Mbytes (distinct from heap & stack)
    total    =   52428797 doubles =    400.0 Mbytes
    verify   = yes
    hardfail = no 


           Directory information
           ---------------------

  0 permanent = .
  0 scratch   = .




                                NWChem Input Module
                                -------------------


                                CF3_ESP_Calculation
                                -------------------

 Scaling coordinates for geometry "geometry" by  1.889725989
 (inverse scale =  0.529177249)

 CS  symmetry detected

          ------
          auto-z
          ------
  no constraints, skipping    0.0000000000000000     
  no constraints, skipping    0.0000000000000000     


                             Geometry "geometry" -> ""
                             -------------------------

 Output coordinates in angstroms (scale by  1.889725989 to convert to a.u.)

  No.       Tag          Charge          X              Y              Z
 ---- ---------------- ---------- -------------- -------------- --------------
    1 C                    6.0000    -1.06818548    -3.14157727     1.24025590
    2 N                    7.0000    -0.20999829    -3.34420695     0.00000000
    3 C                    6.0000    -1.06818548    -3.14157727    -1.24025590
    4 C                    6.0000     1.00291049    -2.39064758     0.00000000
    5 C                    6.0000     0.70366990    -0.91096470     0.00000000
    6 C                    6.0000     0.56956912    -0.20746150     1.20677026
    7 C                    6.0000     0.28637988     1.16123997     1.20609798
    8 C                    6.0000     0.13081333     1.85822935     0.00000000
    9 C                    6.0000    -0.15132317     3.34467917     0.00000000
   10 F                    9.0000     0.98915325     4.08379413     0.00000000
   11 F                    9.0000    -0.86609255     3.74450235     1.08693585
   12 F                    9.0000    -0.86609255     3.74450235    -1.08693585
   13 C                    6.0000     0.28637988     1.16123997    -1.20609798
   14 C                    6.0000     0.56956912    -0.20746150    -1.20677026
   15 C                    6.0000     0.31725515    -4.77707848     0.00000000
   16 H                    1.0000    -0.43000556    -3.23583712     2.12365239
   17 H                    1.0000    -1.53234597    -2.15296742     1.19717462
   18 H                    1.0000    -1.84606248    -3.91146280     1.25097254
   19 H                    1.0000    -1.53234597    -2.15296742    -1.19717462
   20 H                    1.0000    -1.84606248    -3.91146280    -1.25097254
   21 H                    1.0000    -0.43000556    -3.23583712    -2.12365239
   22 H                    1.0000     1.60605634    -2.64604490    -0.88109279
   23 H                    1.0000     1.60605634    -2.64604490     0.88109279
   24 H                    1.0000     0.69643052    -0.70813473     2.16547658
   25 H                    1.0000     0.19293764     1.69083024     2.15512970
   26 H                    1.0000     0.19293764     1.69083024    -2.15512970
   27 H                    1.0000     0.69643052    -0.70813473    -2.16547658
   28 H                    1.0000     0.92277766    -4.92370207     0.89938960
   29 H                    1.0000     0.92277766    -4.92370207    -0.89938960
   30 H                    1.0000    -0.53541818    -5.46282395     0.00000000

      Atomic Mass 
      ----------- 

      C                 12.000000
      N                 14.003070
      F                 18.998400
      H                  1.007825


 Effective nuclear repulsion energy (a.u.)    1037.0901816916

            Nuclear Dipole moment (a.u.) 
            ----------------------------
        X                 Y               Z
 ---------------- ---------------- ----------------
     0.0000000000     0.0000000000     0.0000000000

      Symmetry information
      --------------------

 Group name             Cs        
 Group number              2
 Group order               2
 No. of unique centers    19

      Symmetry unique atoms

     1    2    4    5    6    7    8    9   10   11   15   16   17   18   22
    24   25   28   30



                                Z-matrix (autoz)
                                -------- 

 Units are Angstrom for bonds and degrees for angles

      Type          Name      I     J     K     L     M      Value
      ----------- --------  ----- ----- ----- ----- ----- ----------
    1 Stretch                  1     2                       1.52177
    2 Stretch                  1    16                       1.09387
    3 Stretch                  1    17                       1.09300
    4 Stretch                  1    18                       1.09450
    5 Stretch                  2     3                       1.52177
    6 Stretch                  2     4                       1.54286
    7 Stretch                  2    15                       1.52680
    8 Stretch                  3    19                       1.09300
    9 Stretch                  3    20                       1.09450
   10 Stretch                  3    21                       1.09387
   11 Stretch                  4     5                       1.50964
   12 Stretch                  4    22                       1.09788
   13 Stretch                  4    23                       1.09788
   14 Stretch                  5     6                       1.40328
   15 Stretch                  5    14                       1.40328
   16 Stretch                  6     7                       1.39769
   17 Stretch                  6    24                       1.08898
   18 Stretch                  7     8                       1.40167
   19 Stretch                  7    25                       1.09081
   20 Stretch                  8     9                       1.51299
   21 Stretch                  8    13                       1.40167
   22 Stretch                  9    10                       1.35904
   23 Stretch                  9    11                       1.36095
   24 Stretch                  9    12                       1.36095
   25 Stretch                 13    14                       1.39769
   26 Stretch                 13    26                       1.09081
   27 Stretch                 14    27                       1.08898
   28 Stretch                 15    28                       1.09410
   29 Stretch                 15    29                       1.09410
   30 Stretch                 15    30                       1.09421
   31 Bend                     1     2     3               109.17664
   32 Bend                     1     2     4               111.16422
   33 Bend                     1     2    15               108.64536
   34 Bend                     2     1    16               108.52433
   35 Bend                     2     1    17               109.13525
   36 Bend                     2     1    18               108.36797
   37 Bend                     2     3    19               109.13525
   38 Bend                     2     3    20               108.36797
   39 Bend                     2     3    21               108.52433
   40 Bend                     2     4     5               116.74067
   41 Bend                     2     4    22               106.74491
   42 Bend                     2     4    23               106.74491
   43 Bend                     2    15    28               108.47496
   44 Bend                     2    15    29               108.47496
   45 Bend                     2    15    30               108.60519
   46 Bend                     3     2     4               111.16422
   47 Bend                     3     2    15               108.64536
   48 Bend                     4     2    15               107.97148
   49 Bend                     4     5     6               120.68532
   50 Bend                     4     5    14               120.68532
   51 Bend                     5     4    22               109.68867
   52 Bend                     5     4    23               109.68867
   53 Bend                     5     6     7               120.65572
   54 Bend                     5     6    24               121.02826
   55 Bend                     5    14    13               120.65572
   56 Bend                     5    14    27               121.02826
   57 Bend                     6     5    14               118.62510
   58 Bend                     6     7     8               120.65353
   59 Bend                     6     7    25               119.49658
   60 Bend                     7     6    24               118.31071
   61 Bend                     7     8     9               120.61269
   62 Bend                     7     8    13               118.73983
   63 Bend                     8     7    25               119.84853
   64 Bend                     8     9    10               112.19907
   65 Bend                     8     9    11               112.74103
   66 Bend                     8     9    12               112.74103
   67 Bend                     8    13    14               120.65353
   68 Bend                     8    13    26               119.84853
   69 Bend                     9     8    13               120.61269
   70 Bend                    10     9    11               106.31766
   71 Bend                    10     9    12               106.31766
   72 Bend                    11     9    12               106.00466
   73 Bend                    13    14    27               118.31071
   74 Bend                    14    13    26               119.49658
   75 Bend                    16     1    17               110.94856
   76 Bend                    16     1    18               110.25021
   77 Bend                    17     1    18               109.56040
   78 Bend                    19     3    20               109.56040
   79 Bend                    19     3    21               110.94856
   80 Bend                    20     3    21               110.25021
   81 Bend                    22     4    23               106.74693
   82 Bend                    28    15    29               110.57806
   83 Bend                    28    15    30               110.32157
   84 Bend                    29    15    30               110.32157
   85 Torsion                  1     2     3    19          55.94248
   86 Torsion                  1     2     3    20         -63.30686
   87 Torsion                  1     2     3    21         176.96511
   88 Torsion                  1     2     4     5         -60.92197
   89 Torsion                  1     2     4    22         176.01577
   90 Torsion                  1     2     4    23          62.14028
   91 Torsion                  1     2    15    28         -60.58834
   92 Torsion                  1     2    15    29         179.25619
   93 Torsion                  1     2    15    30          59.33392
   94 Torsion                  2     4     5     6          90.38023
   95 Torsion                  2     4     5    14         -90.38023
   96 Torsion                  3     2     1    16        -176.96511
   97 Torsion                  3     2     1    17         -55.94248
   98 Torsion                  3     2     1    18          63.30686
   99 Torsion                  3     2     4     5          60.92197
  100 Torsion                  3     2     4    22         -62.14028
  101 Torsion                  3     2     4    23        -176.01577
  102 Torsion                  3     2    15    28        -179.25619
  103 Torsion                  3     2    15    29          60.58834
  104 Torsion                  3     2    15    30         -59.33392
  105 Torsion                  4     2     1    16         -53.97144
  106 Torsion                  4     2     1    17          67.05120
  107 Torsion                  4     2     1    18        -173.69946
  108 Torsion                  4     2     3    19         -67.05120
  109 Torsion                  4     2     3    20         173.69946
  110 Torsion                  4     2     3    21          53.97144
  111 Torsion                  4     2    15    28          60.07773
  112 Torsion                  4     2    15    29         -60.07773
  113 Torsion                  4     2    15    30         180.00000
  114 Torsion                  4     5     6     7        -179.70163
  115 Torsion                  4     5     6    24           1.15057
  116 Torsion                  4     5    14    13         179.70163
  117 Torsion                  4     5    14    27          -1.15057
  118 Torsion                  5     4     2    15         180.00000
  119 Torsion                  5     6     7     8          -0.00403
  120 Torsion                  5     6     7    25        -179.57911
  121 Torsion                  5    14    13     8           0.00403
  122 Torsion                  5    14    13    26         179.57911
  123 Torsion                  6     5     4    22        -148.09053
  124 Torsion                  6     5     4    23         -31.14901
  125 Torsion                  6     5    14    13          -1.04342
  126 Torsion                  6     5    14    27         178.10438
  127 Torsion                  6     7     8     9        -178.90515
  128 Torsion                  6     7     8    13          -1.03727
  129 Torsion                  7     6     5    14           1.04342
  130 Torsion                  7     8     9    10          88.91389
  131 Torsion                  7     8     9    11         -31.09132
  132 Torsion                  7     8     9    12        -151.08091
  133 Torsion                  7     8    13    14           1.03727
  134 Torsion                  7     8    13    26        -178.53632
  135 Torsion                  8     7     6    24         179.16649
  136 Torsion                  8    13    14    27        -179.16649
  137 Torsion                  9     8     7    25           0.66844
  138 Torsion                  9     8    13    14         178.90515
  139 Torsion                  9     8    13    26          -0.66844
  140 Torsion                 10     9     8    13         -88.91389
  141 Torsion                 11     9     8    13         151.08091
  142 Torsion                 12     9     8    13          31.09132
  143 Torsion                 13     8     7    25         178.53632
  144 Torsion                 14     5     4    22          31.14901
  145 Torsion                 14     5     4    23         148.09053
  146 Torsion                 14     5     6    24        -178.10438
  147 Torsion                 15     2     1    16          64.70227
  148 Torsion                 15     2     1    17        -174.27510
  149 Torsion                 15     2     1    18         -55.02576
  150 Torsion                 15     2     3    19         174.27510
  151 Torsion                 15     2     3    20          55.02576
  152 Torsion                 15     2     3    21         -64.70227
  153 Torsion                 15     2     4    22          56.93775
  154 Torsion                 15     2     4    23         -56.93775
  155 Torsion                 24     6     7    25          -0.40859
  156 Torsion                 26    13    14    27           0.40859


            XYZ format geometry
            -------------------
    30
 geometry
 C                    -1.06818548    -3.14157727     1.24025590
 N                    -0.20999829    -3.34420695     0.00000000
 C                    -1.06818548    -3.14157727    -1.24025590
 C                     1.00291049    -2.39064758     0.00000000
 C                     0.70366990    -0.91096470     0.00000000
 C                     0.56956912    -0.20746150     1.20677026
 C                     0.28637988     1.16123997     1.20609798
 C                     0.13081333     1.85822935     0.00000000
 C                    -0.15132317     3.34467917     0.00000000
 F                     0.98915325     4.08379413     0.00000000
 F                    -0.86609255     3.74450235     1.08693585
 F                    -0.86609255     3.74450235    -1.08693585
 C                     0.28637988     1.16123997    -1.20609798
 C                     0.56956912    -0.20746150    -1.20677026
 C                     0.31725515    -4.77707848     0.00000000
 H                    -0.43000556    -3.23583712     2.12365239
 H                    -1.53234597    -2.15296742     1.19717462
 H                    -1.84606248    -3.91146280     1.25097254
 H                    -1.53234597    -2.15296742    -1.19717462
 H                    -1.84606248    -3.91146280    -1.25097254
 H                    -0.43000556    -3.23583712    -2.12365239
 H                     1.60605634    -2.64604490    -0.88109279
 H                     1.60605634    -2.64604490     0.88109279
 H                     0.69643052    -0.70813473     2.16547658
 H                     0.19293764     1.69083024     2.15512970
 H                     0.19293764     1.69083024    -2.15512970
 H                     0.69643052    -0.70813473    -2.16547658
 H                     0.92277766    -4.92370207     0.89938960
 H                     0.92277766    -4.92370207    -0.89938960
 H                    -0.53541818    -5.46282395     0.00000000

 ==============================================================================
                                internuclear distances
 ------------------------------------------------------------------------------
       center one      |      center two      | atomic units |  angstroms
 ------------------------------------------------------------------------------
    2 N                |   1 C                |     2.87573  |     1.52177
    3 C                |   2 N                |     2.87573  |     1.52177
    4 C                |   2 N                |     2.91559  |     1.54286
    5 C                |   4 C                |     2.85280  |     1.50964
    6 C                |   5 C                |     2.65181  |     1.40328
    7 C                |   6 C                |     2.64125  |     1.39769
    8 C                |   7 C                |     2.64876  |     1.40167
    9 C                |   8 C                |     2.85913  |     1.51299
   10 F                |   9 C                |     2.56820  |     1.35904
   11 F                |   9 C                |     2.57182  |     1.36095
   12 F                |   9 C                |     2.57182  |     1.36095
   13 C                |   8 C                |     2.64876  |     1.40167
   14 C                |   5 C                |     2.65181  |     1.40328
   14 C                |  13 C                |     2.64125  |     1.39769
   15 C                |   2 N                |     2.88523  |     1.52680
   16 H                |   1 C                |     2.06711  |     1.09387
   17 H                |   1 C                |     2.06547  |     1.09300
   18 H                |   1 C                |     2.06831  |     1.09450
   19 H                |   3 C                |     2.06547  |     1.09300
   20 H                |   3 C                |     2.06831  |     1.09450
   21 H                |   3 C                |     2.06711  |     1.09387
   22 H                |   4 C                |     2.07469  |     1.09788
   23 H                |   4 C                |     2.07469  |     1.09788
   24 H                |   6 C                |     2.05788  |     1.08898
   25 H                |   7 C                |     2.06133  |     1.09081
   26 H                |  13 C                |     2.06133  |     1.09081
   27 H                |  14 C                |     2.05788  |     1.08898
   28 H                |  15 C                |     2.06755  |     1.09410
   29 H                |  15 C                |     2.06755  |     1.09410
   30 H                |  15 C                |     2.06776  |     1.09421
 ------------------------------------------------------------------------------
                         number of included internuclear distances:         30
 ==============================================================================



 ==============================================================================
                                 internuclear angles
 ------------------------------------------------------------------------------
        center 1       |       center 2       |       center 3       |  degrees
 ------------------------------------------------------------------------------
    2 N                |   1 C                |  16 H                |   108.52
    2 N                |   1 C                |  17 H                |   109.14
    2 N                |   1 C                |  18 H                |   108.37
   16 H                |   1 C                |  17 H                |   110.95
   16 H                |   1 C                |  18 H                |   110.25
   17 H                |   1 C                |  18 H                |   109.56
    1 C                |   2 N                |   3 C                |   109.18
    1 C                |   2 N                |   4 C                |   111.16
    1 C                |   2 N                |  15 C                |   108.65
    3 C                |   2 N                |   4 C                |   111.16
    3 C                |   2 N                |  15 C                |   108.65
    4 C                |   2 N                |  15 C                |   107.97
    2 N                |   3 C                |  19 H                |   109.14
    2 N                |   3 C                |  20 H                |   108.37
    2 N                |   3 C                |  21 H                |   108.52
   19 H                |   3 C                |  20 H                |   109.56
   19 H                |   3 C                |  21 H                |   110.95
   20 H                |   3 C                |  21 H                |   110.25
    2 N                |   4 C                |   5 C                |   116.74
    2 N                |   4 C                |  22 H                |   106.74
    2 N                |   4 C                |  23 H                |   106.74
    5 C                |   4 C                |  22 H                |   109.69
    5 C                |   4 C                |  23 H                |   109.69
   22 H                |   4 C                |  23 H                |   106.75
    4 C                |   5 C                |   6 C                |   120.69
    4 C                |   5 C                |  14 C                |   120.69
    6 C                |   5 C                |  14 C                |   118.63
    5 C                |   6 C                |   7 C                |   120.66
    5 C                |   6 C                |  24 H                |   121.03
    7 C                |   6 C                |  24 H                |   118.31
    6 C                |   7 C                |   8 C                |   120.65
    6 C                |   7 C                |  25 H                |   119.50
    8 C                |   7 C                |  25 H                |   119.85
    7 C                |   8 C                |   9 C                |   120.61
    7 C                |   8 C                |  13 C                |   118.74
    9 C                |   8 C                |  13 C                |   120.61
    8 C                |   9 C                |  10 F                |   112.20
    8 C                |   9 C                |  11 F                |   112.74
    8 C                |   9 C                |  12 F                |   112.74
   10 F                |   9 C                |  11 F                |   106.32
   10 F                |   9 C                |  12 F                |   106.32
   11 F                |   9 C                |  12 F                |   106.00
    8 C                |  13 C                |  14 C                |   120.65
    8 C                |  13 C                |  26 H                |   119.85
   14 C                |  13 C                |  26 H                |   119.50
    5 C                |  14 C                |  13 C                |   120.66
    5 C                |  14 C                |  27 H                |   121.03
   13 C                |  14 C                |  27 H                |   118.31
    2 N                |  15 C                |  28 H                |   108.47
    2 N                |  15 C                |  29 H                |   108.47
    2 N                |  15 C                |  30 H                |   108.61
   28 H                |  15 C                |  29 H                |   110.58
   28 H                |  15 C                |  30 H                |   110.32
   29 H                |  15 C                |  30 H                |   110.32
 ------------------------------------------------------------------------------
                            number of included internuclear angles:         54
 ==============================================================================



  library name resolved from: .nwchemrc
  library file name is: </usr/local/Cellar/nwchem/7.0.0_2/share/nwchem/libraries/>
  


 Summary of "ao basis" -> "" (cartesian)
 ------------------------------------------------------------------------------
       Tag                 Description            Shells   Functions and Types
 ---------------- ------------------------------  ------  ---------------------
 *                           6-31G*                   on all atoms 




                           NWChem Geometry Optimization
                           ----------------------------




                                CF3_ESP_Calculation


  no constraints, skipping    0.0000000000000000     
 maximum gradient threshold         (gmax) =   0.000450
 rms gradient threshold             (grms) =   0.000300
 maximum cartesian step threshold   (xmax) =   0.001800
 rms cartesian step threshold       (xrms) =   0.001200
 fixed trust radius                (trust) =   0.300000
 maximum step size to saddle      (sadstp) =   0.100000
 energy precision                  (eprec) =   5.0D-06
 maximum number of steps          (nptopt) =   20
 initial hessian option           (inhess) =    0
 line search option               (linopt) =    1
 hessian update option            (modupd) =    1
 saddle point option              (modsad) =    0
 initial eigen-mode to follow     (moddir) =    0
 initial variable to follow       (vardir) =    0
 follow first negative mode     (firstneg) =    T
 apply conjugacy                    (opcg) =    F
 source of zmatrix                         =   autoz   


          -------------------
          Energy Minimization
          -------------------


 Names of Z-matrix variables 
    1              2              3              4              5         
    6              7              8              9             10         
   11             12             13             14             15         
   16             17             18             19             20         
   21             22             23             24             25         
   26             27             28             29             30         
   31             32             33             34             35         
   36             37             38             39             40         
   41             42             43             44             45         
   46             47             48             49             50         
   51             52             53             54             55         
   56             57             58             59             60         
   61             62             63             64             65         
   66             67             68             69             70         
   71             72             73             74             75         
   76             77             78             79             80         
   81             82             83             84             85         
   86             87             88             89             90         
   91             92             93             94             95         
   96             97             98             99            100         
  101            102            103            104            105         
  106            107            108            109            110         
  111            112            113            114            115         
  116            117            118            119            120         
  121            122            123            124            125         
  126            127            128            129            130         
  131            132            133            134            135         
  136            137            138            139            140         
  141            142            143            144            145         
  146            147            148            149            150         
  151            152            153            154            155         
  156         

 Variables with the same non-blank name are constrained to be equal


 Using old Hessian from previous optimization

          --------
          Step   0
          --------


                         Geometry "geometry" -> "geometry"
                         ---------------------------------

 Output coordinates in angstroms (scale by  1.889725989 to convert to a.u.)

  No.       Tag          Charge          X              Y              Z
 ---- ---------------- ---------- -------------- -------------- --------------
    1 C                    6.0000    -1.06818548    -3.14157727     1.24025590
    2 N                    7.0000    -0.20999829    -3.34420695     0.00000000
    3 C                    6.0000    -1.06818548    -3.14157727    -1.24025590
    4 C                    6.0000     1.00291049    -2.39064758     0.00000000
    5 C                    6.0000     0.70366990    -0.91096470     0.00000000
    6 C                    6.0000     0.56956912    -0.20746150     1.20677026
    7 C                    6.0000     0.28637988     1.16123997     1.20609798
    8 C                    6.0000     0.13081333     1.85822935     0.00000000
    9 C                    6.0000    -0.15132317     3.34467917     0.00000000
   10 F                    9.0000     0.98915325     4.08379413     0.00000000
   11 F                    9.0000    -0.86609255     3.74450235     1.08693585
   12 F                    9.0000    -0.86609255     3.74450235    -1.08693585
   13 C                    6.0000     0.28637988     1.16123997    -1.20609798
   14 C                    6.0000     0.56956912    -0.20746150    -1.20677026
   15 C                    6.0000     0.31725515    -4.77707848     0.00000000
   16 H                    1.0000    -0.43000556    -3.23583712     2.12365239
   17 H                    1.0000    -1.53234597    -2.15296742     1.19717462
   18 H                    1.0000    -1.84606248    -3.91146280     1.25097254
   19 H                    1.0000    -1.53234597    -2.15296742    -1.19717462
   20 H                    1.0000    -1.84606248    -3.91146280    -1.25097254
   21 H                    1.0000    -0.43000556    -3.23583712    -2.12365239
   22 H                    1.0000     1.60605634    -2.64604490    -0.88109279
   23 H                    1.0000     1.60605634    -2.64604490     0.88109279
   24 H                    1.0000     0.69643052    -0.70813473     2.16547658
   25 H                    1.0000     0.19293764     1.69083024     2.15512970
   26 H                    1.0000     0.19293764     1.69083024    -2.15512970
   27 H                    1.0000     0.69643052    -0.70813473    -2.16547658
   28 H                    1.0000     0.92277766    -4.92370207     0.89938960
   29 H                    1.0000     0.92277766    -4.92370207    -0.89938960
   30 H                    1.0000    -0.53541818    -5.46282395     0.00000000

      Atomic Mass 
      ----------- 

      C                 12.000000
      N                 14.003070
      F                 18.998400
      H                  1.007825


 Effective nuclear repulsion energy (a.u.)    1037.0901816916

            Nuclear Dipole moment (a.u.) 
            ----------------------------
        X                 Y               Z
 ---------------- ---------------- ----------------
     0.0000000000     0.0000000000     0.0000000000

      Symmetry information
      --------------------

 Group name             Cs        
 Group number              2
 Group order               2
 No. of unique centers    19

      Symmetry unique atoms

     1    2    4    5    6    7    8    9   10   11   15   16   17   18   22
    24   25   28   30


                                 NWChem DFT Module
                                 -----------------


                                CF3_ESP_Calculation


                      Basis "ao basis" -> "ao basis" (cartesian)
                      -----
  C (Carbon)
  ----------
            Exponent  Coefficients 
       -------------- ---------------------------------------------------------
  1 S  3.04752490E+03  0.001835
  1 S  4.57369510E+02  0.014037
  1 S  1.03948690E+02  0.068843
  1 S  2.92101550E+01  0.232184
  1 S  9.28666300E+00  0.467941
  1 S  3.16392700E+00  0.362312

  2 S  7.86827240E+00 -0.119332
  2 S  1.88128850E+00 -0.160854
  2 S  5.44249300E-01  1.143456

  3 P  7.86827240E+00  0.068999
  3 P  1.88128850E+00  0.316424
  3 P  5.44249300E-01  0.744308

  4 S  1.68714400E-01  1.000000

  5 P  1.68714400E-01  1.000000

  6 D  8.00000000E-01  1.000000

  N (Nitrogen)
  ------------
            Exponent  Coefficients 
       -------------- ---------------------------------------------------------
  1 S  4.17351100E+03  0.001835
  1 S  6.27457900E+02  0.013995
  1 S  1.42902100E+02  0.068587
  1 S  4.02343300E+01  0.232241
  1 S  1.28202100E+01  0.469070
  1 S  4.39043700E+00  0.360455

  2 S  1.16263580E+01 -0.114961
  2 S  2.71628000E+00 -0.169118
  2 S  7.72218000E-01  1.145852

  3 P  1.16263580E+01  0.067580
  3 P  2.71628000E+00  0.323907
  3 P  7.72218000E-01  0.740895

  4 S  2.12031300E-01  1.000000

  5 P  2.12031300E-01  1.000000

  6 D  8.00000000E-01  1.000000

  F (Fluorine)
  ------------
            Exponent  Coefficients 
       -------------- ---------------------------------------------------------
  1 S  7.00171309E+03  0.001820
  1 S  1.05136609E+03  0.013916
  1 S  2.39285690E+02  0.068405
  1 S  6.73974453E+01  0.233186
  1 S  2.15199573E+01  0.471267
  1 S  7.40310130E+00  0.356619

  2 S  2.08479528E+01 -0.108507
  2 S  4.80830834E+00 -0.146452
  2 S  1.34406986E+00  1.128689

  3 P  2.08479528E+01  0.071629
  3 P  4.80830834E+00  0.345912
  3 P  1.34406986E+00  0.722470

  4 S  3.58151393E-01  1.000000

  5 P  3.58151393E-01  1.000000

  6 D  8.00000000E-01  1.000000

  H (Hydrogen)
  ------------
            Exponent  Coefficients 
       -------------- ---------------------------------------------------------
  1 S  1.87311370E+01  0.033495
  1 S  2.82539370E+00  0.234727
  1 S  6.40121700E-01  0.813757

  2 S  1.61277800E-01  1.000000



 Summary of "ao basis" -> "ao basis" (cartesian)
 ------------------------------------------------------------------------------
       Tag                 Description            Shells   Functions and Types
 ---------------- ------------------------------  ------  ---------------------
 C                           6-31G*                  6       15   3s2p1d
 N                           6-31G*                  6       15   3s2p1d
 F                           6-31G*                  6       15   3s2p1d
 H                           6-31G*                  2        2   2s




 Summary of "ao basis" -> "ao basis" (cartesian)
 ------------------------------------------------------------------------------
       Tag                 Description            Shells   Functions and Types
 ---------------- ------------------------------  ------  ---------------------
 C                           6-31G*                  6       15   3s2p1d
 N                           6-31G*                  6       15   3s2p1d
 F                           6-31G*                  6       15   3s2p1d
 H                           6-31G*                  2        2   2s


      Symmetry analysis of basis
      --------------------------

        a'        153
        a"        102

  Caching 1-el integrals 

            General Information
            -------------------
          SCF calculation type: DFT
          Wavefunction type:  closed shell.
          No. of atoms     :    30
          No. of electrons :   114
           Alpha electrons :    57
            Beta electrons :    57
          Charge           :     1
          Spin multiplicity:     1
          Use of symmetry is: on ; symmetry adaption is: on 
          Maximum number of iterations: ***
          AO basis - number of functions:   255
                     number of shells:   120
          Convergence on energy requested:  1.00D-06
          Convergence on density requested:  1.00D-05
          Convergence on gradient requested:  5.00D-04

              XC Information
              --------------
                         B3LYP Method XC Potential
                     Hartree-Fock (Exact) Exchange  0.200          
                        Slater Exchange Functional  0.800 local    
                    Becke 1988 Exchange Functional  0.720 non-local
              Lee-Yang-Parr Correlation Functional  0.810          
                  VWN I RPA Correlation Functional  0.190 local    

             Grid Information
             ----------------
          Grid used for XC integration:  medium    
          Radial quadrature: Mura-Knowles        
          Angular quadrature: Lebedev. 
          Tag              B.-S. Rad. Rad. Pts. Rad. Cut. Ang. Pts.
          ---              ---------- --------- --------- ---------
          C                   0.70       49          14.0       434
          N                   0.65       49          12.0       434
          F                   0.50       49          12.0       434
          H                   0.35       45          14.0       434
          Grid pruning is: on 
          Number of quadrature shells:   899
          Spatial weights used:  Erf1

          Convergence Information
          -----------------------
          Convergence aids based upon iterative change in 
          total energy or number of iterations. 
          Levelshifting, if invoked, occurs when the 
          HOMO/LUMO gap drops below (HL_TOL):  1.00D-02
          DIIS, if invoked, will attempt to extrapolate 
          using up to (NFOCK): 10 stored Fock matrices.

                    Damping( 0%)  Levelshifting(0.5)       DIIS
                  --------------- ------------------- ---------------
          dE  on:    start            ASAP                start   
          dE off:    2 iters        *** iters           *** iters 


      Screening Tolerance Information
      -------------------------------
          Density screening/tol_rho:  1.00D-10
          AO Gaussian exp screening on grid/accAOfunc:  14
          CD Gaussian exp screening on grid/accCDfunc:  20
          XC Gaussian exp screening on grid/accXCfunc:  20
          Schwarz screening/accCoul:  1.00D-08


      Superposition of Atomic Density Guess
      -------------------------------------

 Sum of atomic energies:        -774.14701803

 Renormalizing density from     115.00 to    114

      Non-variational initial energy
      ------------------------------

 Total energy =    -778.381329
 1-e energy   =   -3093.975763
 2-e energy   =    1278.504252
 HOMO         =      -0.475246
 LUMO         =      -0.204195


      Symmetry analysis of molecular orbitals - initial
      -------------------------------------------------

  Numbering of irreducible representations: 

     1 a'          2 a"      

  Orbital symmetries:

     1 a'          2 a"          3 a'          4 a'          5 a'      
     6 a'          7 a"          8 a'          9 a"         10 a'      
    11 a'         12 a'         13 a"         14 a'         15 a'      
    16 a'         17 a'         18 a'         19 a"         20 a'      
    21 a'         22 a"         23 a'         24 a"         25 a'      
    26 a'         27 a"         28 a'         29 a'         30 a'      
    31 a"         32 a'         33 a'         34 a"         35 a'      
    36 a'         37 a"         38 a"         39 a'         40 a'      
    41 a"         42 a'         43 a"         44 a"         45 a'      
    46 a"         47 a'         48 a'         49 a"         50 a"      
    51 a'         52 a'         53 a"         54 a'         55 a"      
    56 a"         57 a'         58 a'         59 a"         60 a'      
    61 a'         62 a'         63 a'         64 a"         65 a'      
    66 a"         67 a"      

   Time after variat. SCF:      5.7
   Time prior to 1st pass:      5.7

 Integral file          = ./CF3.aoints.0
 Record size in doubles =  65536        No. of integs per rec  =  43688
 Max. records in memory =      0        Max. records in file   = 184979
 No. of bits per label  =      8        No. of bits per value  =     64


 #quartets = 5.583D+06 #integrals = 9.466D+07 #direct =  0.0% #cached =100.0%


 Grid_pts file          = ./CF3.gridpts.0
 Record size in doubles =  12289        No. of grid_pts per rec  =   3070
 Max. records in memory =    141        Max. recs in file   =    955566

 Grid integrated density:     114.000237492783
 Requested integration accuracy:   0.10E-05

           Memory utilization after 1st SCF pass: 
           Heap Space remaining (MW):       11.32            11321708
          Stack Space remaining (MW):       13.10            13104740

   convergence    iter        energy       DeltaE   RMS-Dens  Diis-err    time
 ---------------- ----- ----------------- --------- --------- ---------  ------
 d= 0,ls=0.0,diis     1   -781.9531959995 -1.82D+03  9.12D-03  3.13D+00    34.9
 Grid integrated density:     114.000203958261
 Requested integration accuracy:   0.10E-05
 d= 0,ls=0.0,diis     2   -781.8312353947  1.22D-01  4.90D-03  4.98D+00    44.0
 Grid integrated density:     114.000206325384
 Requested integration accuracy:   0.10E-05
 d= 0,ls=0.0,diis     3   -782.2353823928 -4.04D-01  1.26D-03  1.42D-01    52.3
 Grid integrated density:     114.000206649710
 Requested integration accuracy:   0.10E-05
 d= 0,ls=0.0,diis     4   -782.2440542778 -8.67D-03  6.05D-04  3.38D-02    60.6
 Grid integrated density:     114.000206373530
 Requested integration accuracy:   0.10E-05
 d= 0,ls=0.0,diis     5   -782.2482952769 -4.24D-03  1.60D-04  1.63D-03    70.9
 Grid integrated density:     114.000206024760
 Requested integration accuracy:   0.10E-05
  Resetting Diis
 d= 0,ls=0.0,diis     6   -782.2484730549 -1.78D-04  5.37D-05  2.75D-04    81.5
 Grid integrated density:     114.000206024273
 Requested integration accuracy:   0.10E-05
 d= 0,ls=0.0,diis     7   -782.2485076686 -3.46D-05  2.12D-05  1.12D-05    92.1
 Grid integrated density:     114.000206049651
 Requested integration accuracy:   0.10E-05
 d= 0,ls=0.0,diis     8   -782.2485059110  1.76D-06  1.37D-05  2.65D-05   102.2
 Grid integrated density:     114.000206048953
 Requested integration accuracy:   0.10E-05
 d= 0,ls=0.0,diis     9   -782.2485088458 -2.93D-06  2.22D-06  3.86D-07   112.2
 Grid integrated density:     114.000206042348
 Requested integration accuracy:   0.10E-05
 d= 0,ls=0.0,diis    10   -782.2485088885 -4.27D-08  6.49D-07  3.86D-08   122.2


         Total DFT energy =     -782.248508888514
      One electron energy =    -3112.810768430142
           Coulomb energy =     1396.745049194608
    Exchange-Corr. energy =     -103.272971344531
 Nuclear repulsion energy =     1037.090181691551

 Numeric. integr. density =      114.000206042348

     Total iterative time =    116.5s



                  Occupations of the irreducible representations
                  ----------------------------------------------

                     irrep           alpha         beta
                     --------     --------     --------
                     a'               36.0         36.0
                     a"               21.0         21.0


                       DFT Final Molecular Orbital Analysis
                       ------------------------------------

 Vector    1  Occ=2.000000D+00  E=-2.481434D+01  Symmetry=a'
              MO Center= -8.7D-01,  3.7D+00, -4.1D-17, r^2= 1.2D+00
   Bfn.  Coefficient  Atom+Function         Bfn.  Coefficient  Atom+Function  
  ----- ------------  ---------------      ----- ------------  ---------------
   151      0.702164  11 F  s               166      0.702164  12 F  s         

 Vector    2  Occ=2.000000D+00  E=-2.481433D+01  Symmetry=a"
              MO Center= -8.7D-01,  3.7D+00,  6.2D-16, r^2= 1.2D+00
   Bfn.  Coefficient  Atom+Function         Bfn.  Coefficient  Atom+Function  
  ----- ------------  ---------------      ----- ------------  ---------------
   151      0.702164  11 F  s               166     -0.702164  12 F  s         

 Vector    3  Occ=2.000000D+00  E=-2.480970D+01  Symmetry=a'
              MO Center=  9.9D-01,  4.1D+00, -2.7D-16, r^2= 1.2D-02
   Bfn.  Coefficient  Atom+Function         Bfn.  Coefficient  Atom+Function  
  ----- ------------  ---------------      ----- ------------  ---------------
   136      0.993011  10 F  s         

 Vector    4  Occ=2.000000D+00  E=-1.463675D+01  Symmetry=a'
              MO Center= -2.1D-01, -3.3D+00, -3.4D-18, r^2= 2.0D-02
   Bfn.  Coefficient  Atom+Function         Bfn.  Coefficient  Atom+Function  
  ----- ------------  ---------------      ----- ------------  ---------------
    16      0.992731   2 N  s                17      0.034551   2 N  s         

 Vector    5  Occ=2.000000D+00  E=-1.053247D+01  Symmetry=a'
              MO Center= -1.5D-01,  3.3D+00,  6.3D-19, r^2= 2.8D-02
   Bfn.  Coefficient  Atom+Function         Bfn.  Coefficient  Atom+Function  
  ----- ------------  ---------------      ----- ------------  ---------------
   121      0.993388   9 C  s               122      0.047068   9 C  s         

 Vector    6  Occ=2.000000D+00  E=-1.041224D+01  Symmetry=a'
              MO Center=  1.0D+00, -2.4D+00,  4.1D-21, r^2= 2.8D-02
   Bfn.  Coefficient  Atom+Function         Bfn.  Coefficient  Atom+Function  
  ----- ------------  ---------------      ----- ------------  ---------------
    46      0.993115   4 C  s                47      0.050220   4 C  s         

 Vector    7  Occ=2.000000D+00  E=-1.040863D+01  Symmetry=a'
              MO Center=  3.2D-01, -4.8D+00, -2.3D-15, r^2= 2.8D-02
   Bfn.  Coefficient  Atom+Function         Bfn.  Coefficient  Atom+Function  
  ----- ------------  ---------------      ----- ------------  ---------------
   211      0.992974  15 C  s               212      0.049967  15 C  s         

 Vector    8  Occ=2.000000D+00  E=-1.040564D+01  Symmetry=a"
              MO Center= -1.1D+00, -3.1D+00,  2.3D-15, r^2= 1.6D+00
   Bfn.  Coefficient  Atom+Function         Bfn.  Coefficient  Atom+Function  
  ----- ------------  ---------------      ----- ------------  ---------------
     1      0.702178   1 C  s                31     -0.702178   3 C  s         
     2      0.035548   1 C  s                32     -0.035548   3 C  s         

 Vector    9  Occ=2.000000D+00  E=-1.040563D+01  Symmetry=a'
              MO Center= -1.1D+00, -3.1D+00,  2.2D-16, r^2= 1.6D+00
   Bfn.  Coefficient  Atom+Function         Bfn.  Coefficient  Atom+Function  
  ----- ------------  ---------------      ----- ------------  ---------------
     1      0.702072   1 C  s                31      0.702072   3 C  s         
     2      0.035019   1 C  s                32      0.035019   3 C  s         

 Vector   10  Occ=2.000000D+00  E=-1.035719D+01  Symmetry=a'
              MO Center=  7.0D-01, -9.1D-01, -2.4D-15, r^2= 2.9D-02
   Bfn.  Coefficient  Atom+Function         Bfn.  Coefficient  Atom+Function  
  ----- ------------  ---------------      ----- ------------  ---------------
    61      0.992622   5 C  s                62      0.049804   5 C  s         

 Vector   11  Occ=2.000000D+00  E=-1.034487D+01  Symmetry=a'
              MO Center=  1.3D-01,  1.9D+00,  2.0D-14, r^2= 3.1D-02
   Bfn.  Coefficient  Atom+Function         Bfn.  Coefficient  Atom+Function  
  ----- ------------  ---------------      ----- ------------  ---------------
   106      0.992057   8 C  s               107      0.049775   8 C  s         
    91      0.027301   7 C  s               181      0.027301  13 C  s         

 Vector   12  Occ=2.000000D+00  E=-1.034125D+01  Symmetry=a"
              MO Center=  5.7D-01, -2.0D-01,  3.9D-16, r^2= 1.5D+00
   Bfn.  Coefficient  Atom+Function         Bfn.  Coefficient  Atom+Function  
  ----- ------------  ---------------      ----- ------------  ---------------
    76      0.701278   6 C  s               196     -0.701278  14 C  s         
    77      0.035214   6 C  s               197     -0.035214  14 C  s         
    91      0.032350   7 C  s               181     -0.032350  13 C  s         

 Vector   13  Occ=2.000000D+00  E=-1.034124D+01  Symmetry=a'
              MO Center=  5.7D-01, -2.1D-01,  2.4D-16, r^2= 1.5D+00
   Bfn.  Coefficient  Atom+Function         Bfn.  Coefficient  Atom+Function  
  ----- ------------  ---------------      ----- ------------  ---------------
    76      0.701162   6 C  s               196      0.701162  14 C  s         
    77      0.035297   6 C  s               197      0.035297  14 C  s         
    91      0.031347   7 C  s               181      0.031347  13 C  s         

 Vector   14  Occ=2.000000D+00  E=-1.033532D+01  Symmetry=a"
              MO Center=  2.9D-01,  1.2D+00, -1.7D-10, r^2= 1.5D+00
   Bfn.  Coefficient  Atom+Function         Bfn.  Coefficient  Atom+Function  
  ----- ------------  ---------------      ----- ------------  ---------------
    91      0.701278   7 C  s               181     -0.701278  13 C  s         
    92      0.035182   7 C  s               182     -0.035182  13 C  s         
    76     -0.032646   6 C  s               196      0.032646  14 C  s         

 Vector   15  Occ=2.000000D+00  E=-1.033530D+01  Symmetry=a'
              MO Center=  2.9D-01,  1.2D+00,  1.7D-10, r^2= 1.5D+00
   Bfn.  Coefficient  Atom+Function         Bfn.  Coefficient  Atom+Function  
  ----- ------------  ---------------      ----- ------------  ---------------
    91      0.700831   7 C  s               181      0.700831  13 C  s         
   106     -0.039080   8 C  s                92      0.035294   7 C  s         
   182      0.035294  13 C  s                76     -0.031852   6 C  s         
   196     -0.031852  14 C  s         

 Vector   16  Occ=2.000000D+00  E=-1.386665D+00  Symmetry=a'
              MO Center= -2.6D-01,  3.8D+00,  5.0D-18, r^2= 1.4D+00
   Bfn.  Coefficient  Atom+Function         Bfn.  Coefficient  Atom+Function  
  ----- ------------  ---------------      ----- ------------  ---------------
   156      0.268388  11 F  s               171      0.268388  12 F  s         
   152      0.261977  11 F  s               167      0.261977  12 F  s         
   141      0.254473  10 F  s               137      0.250906  10 F  s         
   122      0.204722   9 C  s               151     -0.121009  11 F  s         
   166     -0.121009  12 F  s               136     -0.115630  10 F  s         

 Vector   17  Occ=2.000000D+00  E=-1.300290D+00  Symmetry=a"
              MO Center= -7.7D-01,  3.7D+00,  9.7D-17, r^2= 1.4D+00
   Bfn.  Coefficient  Atom+Function         Bfn.  Coefficient  Atom+Function  
  ----- ------------  ---------------      ----- ------------  ---------------
   152      0.364031  11 F  s               167     -0.364031  12 F  s         
   156      0.346065  11 F  s               171     -0.346065  12 F  s         
   151     -0.162402  11 F  s               166      0.162402  12 F  s         
   125      0.144310   9 C  pz              155     -0.043606  11 F  pz        
   170     -0.043606  12 F  pz              132     -0.041353   9 C  dxz       

 Vector   18  Occ=2.000000D+00  E=-1.297797D+00  Symmetry=a'
              MO Center=  3.3D-01,  3.9D+00,  1.5D-16, r^2= 1.3D+00
   Bfn.  Coefficient  Atom+Function         Bfn.  Coefficient  Atom+Function  
  ----- ------------  ---------------      ----- ------------  ---------------
   137      0.426089  10 F  s               141      0.397383  10 F  s         
   152     -0.206098  11 F  s               167     -0.206098  12 F  s         
   156     -0.193220  11 F  s               171     -0.193220  12 F  s         
   136     -0.189295  10 F  s               123      0.142339   9 C  px        
   151      0.091599  11 F  s               166      0.091599  12 F  s         

 Vector   19  Occ=2.000000D+00  E=-1.175978D+00  Symmetry=a'
              MO Center= -2.1D-01, -3.4D+00, -2.2D-15, r^2= 1.1D+00
   Bfn.  Coefficient  Atom+Function         Bfn.  Coefficient  Atom+Function  
  ----- ------------  ---------------      ----- ------------  ---------------
    21      0.422317   2 N  s                17      0.377972   2 N  s         
    16     -0.182777   2 N  s               212      0.111151  15 C  s         
     2      0.110012   1 C  s                32      0.110012   3 C  s         
    47      0.109173   4 C  s               214      0.066868  15 C  py        
   211     -0.059364  15 C  s                 1     -0.058812   1 C  s         

 Vector   20  Occ=2.000000D+00  E=-1.008107D+00  Symmetry=a'
              MO Center=  4.7D-01,  9.0D-02,  8.1D-17, r^2= 2.9D+00
   Bfn.  Coefficient  Atom+Function         Bfn.  Coefficient  Atom+Function  
  ----- ------------  ---------------      ----- ------------  ---------------
    62      0.214540   5 C  s                77      0.174085   6 C  s         
   197      0.174085  14 C  s               107      0.164682   8 C  s         
    92      0.154523   7 C  s               182      0.154523  13 C  s         
    66      0.122923   5 C  s                61     -0.111037   5 C  s         
    81      0.109398   6 C  s               201      0.109398  14 C  s         

 Vector   21  Occ=2.000000D+00  E=-9.446839D-01  Symmetry=a'
              MO Center=  4.4D-01, -6.2D-01,  1.7D-17, r^2= 6.1D+00
   Bfn.  Coefficient  Atom+Function         Bfn.  Coefficient  Atom+Function  
  ----- ------------  ---------------      ----- ------------  ---------------
    47      0.235157   4 C  s               107     -0.211913   8 C  s         
    51      0.204330   4 C  s                62      0.171006   5 C  s         
   111     -0.136582   8 C  s                92     -0.125502   7 C  s         
   182     -0.125502  13 C  s                46     -0.120907   4 C  s         
   106      0.106770   8 C  s                66      0.101186   5 C  s         

 Vector   22  Occ=2.000000D+00  E=-9.133486D-01  Symmetry=a'
              MO Center= -2.1D-01, -3.9D+00,  2.7D-13, r^2= 2.9D+00
   Bfn.  Coefficient  Atom+Function         Bfn.  Coefficient  Atom+Function  
  ----- ------------  ---------------      ----- ------------  ---------------
   212      0.287374  15 C  s               216      0.263398  15 C  s         
    18      0.173927   2 N  px                2     -0.168100   1 C  s         
    32     -0.168100   3 C  s                 6     -0.153415   1 C  s         
    36     -0.153415   3 C  s                19     -0.146611   2 N  py        
   211     -0.147077  15 C  s               250      0.098045  28 H  s         

 Vector   23  Occ=2.000000D+00  E=-9.129992D-01  Symmetry=a"
              MO Center= -8.2D-01, -3.1D+00, -2.7D-13, r^2= 2.8D+00
   Bfn.  Coefficient  Atom+Function         Bfn.  Coefficient  Atom+Function  
  ----- ------------  ---------------      ----- ------------  ---------------
     2      0.264125   1 C  s                32     -0.264125   3 C  s         
     6      0.240706   1 C  s                36     -0.240706   3 C  s         
    20      0.226890   2 N  pz                1     -0.135374   1 C  s         
    31      0.135374   3 C  s                24      0.111605   2 N  pz        
   226      0.095834  16 H  s               236     -0.095834  21 H  s         

 Vector   24  Occ=2.000000D+00  E=-8.894438D-01  Symmetry=a"
              MO Center=  4.0D-01,  3.4D-01, -3.4D-15, r^2= 3.2D+00
   Bfn.  Coefficient  Atom+Function         Bfn.  Coefficient  Atom+Function  
  ----- ------------  ---------------      ----- ------------  ---------------
    77      0.226689   6 C  s               197     -0.226689  14 C  s         
    92      0.215784   7 C  s               182     -0.215784  13 C  s         
    81      0.171447   6 C  s               201     -0.171447  14 C  s         
    96      0.162461   7 C  s               186     -0.162461  13 C  s         
    65      0.122812   5 C  pz               76     -0.114575   6 C  s         

 Vector   25  Occ=2.000000D+00  E=-8.828205D-01  Symmetry=a'
              MO Center=  2.8D-01, -8.5D-01,  7.4D-15, r^2= 8.8D+00
   Bfn.  Coefficient  Atom+Function         Bfn.  Coefficient  Atom+Function  
  ----- ------------  ---------------      ----- ------------  ---------------
    47      0.185799   4 C  s               107      0.185911   8 C  s         
    51      0.169618   4 C  s               212     -0.145355  15 C  s         
   216     -0.146052  15 C  s               122      0.138709   9 C  s         
   111      0.136497   8 C  s                77     -0.131257   6 C  s         
   197     -0.131257  14 C  s                19      0.127860   2 N  py        

 Vector   26  Occ=2.000000D+00  E=-8.141295D-01  Symmetry=a'
              MO Center= -1.2D-01, -7.8D-01,  6.8D-15, r^2= 1.2D+01
   Bfn.  Coefficient  Atom+Function         Bfn.  Coefficient  Atom+Function  
  ----- ------------  ---------------      ----- ------------  ---------------
    21      0.262779   2 N  s               122     -0.212179   9 C  s         
    17      0.166313   2 N  s               216     -0.149062  15 C  s         
     6     -0.131496   1 C  s                36     -0.131496   3 C  s         
   212     -0.124258  15 C  s               109     -0.123300   8 C  py        
    62     -0.116900   5 C  s                 2     -0.109602   1 C  s         

 Vector   27  Occ=2.000000D+00  E=-7.816978D-01  Symmetry=a'
              MO Center= -5.1D-02, -2.6D-01, -1.4D-14, r^2= 1.2D+01
   Bfn.  Coefficient  Atom+Function         Bfn.  Coefficient  Atom+Function  
  ----- ------------  ---------------      ----- ------------  ---------------
    21      0.244602   2 N  s               122      0.226793   9 C  s         
    51     -0.168123   4 C  s                17      0.149733   2 N  s         
    47     -0.135262   4 C  s                 6     -0.129963   1 C  s         
    36     -0.129963   3 C  s               141     -0.119234  10 F  s         
   126      0.118140   9 C  s               156     -0.117016  11 F  s         

 Vector   28  Occ=2.000000D+00  E=-7.556194D-01  Symmetry=a"
              MO Center=  4.1D-01,  4.3D-01,  1.8D-14, r^2= 4.2D+00
   Bfn.  Coefficient  Atom+Function         Bfn.  Coefficient  Atom+Function  
  ----- ------------  ---------------      ----- ------------  ---------------
    65      0.211687   5 C  pz              110     -0.210746   8 C  pz        
    92     -0.184865   7 C  s               182      0.184865  13 C  s         
    77      0.161777   6 C  s               197     -0.161777  14 C  s         
    96     -0.143031   7 C  s               186      0.143031  13 C  s         
    81      0.135874   6 C  s               201     -0.135874  14 C  s         

 Vector   29  Occ=2.000000D+00  E=-7.329683D-01  Symmetry=a'
              MO Center=  1.3D-01,  8.5D-01, -1.7D-15, r^2= 8.8D+00
   Bfn.  Coefficient  Atom+Function         Bfn.  Coefficient  Atom+Function  
  ----- ------------  ---------------      ----- ------------  ---------------
    62      0.160499   5 C  s               124     -0.160128   9 C  py        
   138      0.155340  10 F  px              107      0.147882   8 C  s         
   155      0.143290  11 F  pz              170     -0.143290  12 F  pz        
   122     -0.141570   9 C  s                66      0.138245   5 C  s         
    49      0.125549   4 C  py               18     -0.116653   2 N  px        

 Vector   30  Occ=2.000000D+00  E=-6.900462D-01  Symmetry=a'
              MO Center=  5.7D-02, -3.1D+00, -3.3D-16, r^2= 4.0D+00
   Bfn.  Coefficient  Atom+Function         Bfn.  Coefficient  Atom+Function  
  ----- ------------  ---------------      ----- ------------  ---------------
    19      0.275187   2 N  py               48     -0.214377   4 C  px        
    23      0.179879   2 N  py              213      0.169655  15 C  px        
    51     -0.164486   4 C  s                 4      0.163622   1 C  py        
    34      0.163622   3 C  py               18      0.129139   2 N  px        
   216      0.122334  15 C  s               214     -0.108896  15 C  py        

 Vector   31  Occ=2.000000D+00  E=-6.865951D-01  Symmetry=a"
              MO Center= -3.9D-01, -3.0D+00,  1.7D-15, r^2= 4.9D+00
   Bfn.  Coefficient  Atom+Function         Bfn.  Coefficient  Atom+Function  
  ----- ------------  ---------------      ----- ------------  ---------------
    20      0.304488   2 N  pz               24      0.193242   2 N  pz        
     3      0.185254   1 C  px               33     -0.185254   3 C  px        
   215      0.181622  15 C  pz               50      0.174185   4 C  pz        
     6     -0.138662   1 C  s                36      0.138662   3 C  s         
   228     -0.095169  17 H  s               232      0.095169  19 H  s         

 Vector   32  Occ=2.000000D+00  E=-6.827604D-01  Symmetry=a'
              MO Center=  1.1D-01,  6.0D-02, -5.1D-15, r^2= 9.0D+00
   Bfn.  Coefficient  Atom+Function         Bfn.  Coefficient  Atom+Function  
  ----- ------------  ---------------      ----- ------------  ---------------
   124     -0.172889   9 C  py              109      0.168653   8 C  py        
    80      0.160903   6 C  pz              200     -0.160903  14 C  pz        
    95      0.155046   7 C  pz              185     -0.155046  13 C  pz        
    18     -0.122216   2 N  px               64     -0.118587   5 C  py        
   214     -0.112035  15 C  py              155      0.106496  11 F  pz        

 Vector   33  Occ=2.000000D+00  E=-6.767548D-01  Symmetry=a'
              MO Center= -1.7D-01, -1.1D+00, -3.4D-15, r^2= 1.2D+01
   Bfn.  Coefficient  Atom+Function         Bfn.  Coefficient  Atom+Function  
  ----- ------------  ---------------      ----- ------------  ---------------
    18      0.215941   2 N  px              124     -0.208488   9 C  py        
   214      0.176253  15 C  py                5      0.157381   1 C  pz        
    35     -0.157381   3 C  pz              109      0.152108   8 C  py        
    22      0.138332   2 N  px               19     -0.135590   2 N  py        
    51     -0.122317   4 C  s               138      0.116148  10 F  px        

 Vector   34  Occ=2.000000D+00  E=-6.665379D-01  Symmetry=a"
              MO Center= -4.8D-01,  3.1D+00,  3.2D-15, r^2= 5.3D+00
   Bfn.  Coefficient  Atom+Function         Bfn.  Coefficient  Atom+Function  
  ----- ------------  ---------------      ----- ------------  ---------------
   125      0.333451   9 C  pz              153      0.245152  11 F  px        
   168     -0.245152  12 F  px              155     -0.195629  11 F  pz        
   156     -0.196248  11 F  s               170     -0.195629  12 F  pz        
   171      0.196248  12 F  s               140      0.181260  10 F  pz        
   157      0.143394  11 F  px              172     -0.143394  12 F  px        

 Vector   35  Occ=2.000000D+00  E=-6.659544D-01  Symmetry=a'
              MO Center=  1.4D-01,  3.8D+00, -2.6D-17, r^2= 1.9D+00
   Bfn.  Coefficient  Atom+Function         Bfn.  Coefficient  Atom+Function  
  ----- ------------  ---------------      ----- ------------  ---------------
   123      0.343919   9 C  px              138     -0.312527  10 F  px        
   141     -0.251643  10 F  s               139     -0.248746  10 F  py        
   155      0.219233  11 F  pz              170     -0.219233  12 F  pz        
   142     -0.175221  10 F  px              143     -0.138695  10 F  py        
   159      0.128890  11 F  pz              174     -0.128890  12 F  pz        

 Vector   36  Occ=2.000000D+00  E=-6.224208D-01  Symmetry=a'
              MO Center=  3.8D-02, -1.7D+00, -3.4D-14, r^2= 8.4D+00
   Bfn.  Coefficient  Atom+Function         Bfn.  Coefficient  Atom+Function  
  ----- ------------  ---------------      ----- ------------  ---------------
    49      0.192858   4 C  py               64     -0.183785   5 C  py        
    48     -0.158119   4 C  px                3      0.147581   1 C  px        
    33      0.147581   3 C  px              213     -0.137528  15 C  px        
     5      0.128658   1 C  pz               35     -0.128658   3 C  pz        
   226      0.113982  16 H  s               236      0.113982  21 H  s         

 Vector   37  Occ=2.000000D+00  E=-6.197053D-01  Symmetry=a"
              MO Center=  1.8D-01, -1.6D+00,  3.5D-14, r^2= 8.8D+00
   Bfn.  Coefficient  Atom+Function         Bfn.  Coefficient  Atom+Function  
  ----- ------------  ---------------      ----- ------------  ---------------
    50      0.228783   4 C  pz              215     -0.196086  15 C  pz        
   110      0.156563   8 C  pz                4      0.155047   1 C  py        
    34     -0.155047   3 C  py               94      0.149817   7 C  py        
   184     -0.149817  13 C  py               54      0.136724   4 C  pz        
    65      0.127821   5 C  pz               79     -0.110175   6 C  py        

 Vector   38  Occ=2.000000D+00  E=-5.950209D-01  Symmetry=a'
              MO Center=  5.5D-02, -2.3D+00,  5.8D-15, r^2= 1.1D+01
   Bfn.  Coefficient  Atom+Function         Bfn.  Coefficient  Atom+Function  
  ----- ------------  ---------------      ----- ------------  ---------------
   213      0.237545  15 C  px              214      0.206901  15 C  py        
   254     -0.193656  30 H  s                66      0.176307   5 C  s         
   255     -0.136972  30 H  s                19     -0.124943   2 N  py        
    95      0.123584   7 C  pz              185     -0.123584  13 C  pz        
   217      0.121558  15 C  px              244      0.118477  25 H  s         

 Vector   39  Occ=2.000000D+00  E=-5.944381D-01  Symmetry=a"
              MO Center= -4.2D-01, -2.2D+00,  9.2D-15, r^2= 7.8D+00
   Bfn.  Coefficient  Atom+Function         Bfn.  Coefficient  Atom+Function  
  ----- ------------  ---------------      ----- ------------  ---------------
     4      0.177800   1 C  py               34     -0.177800   3 C  py        
    65     -0.173157   5 C  pz              215     -0.170641  15 C  pz        
     3      0.164245   1 C  px               33     -0.164245   3 C  px        
   110     -0.148701   8 C  pz              230     -0.146494  18 H  s         
   234      0.146494  20 H  s                20      0.135569   2 N  pz        

 Vector   40  Occ=2.000000D+00  E=-5.873720D-01  Symmetry=a'
              MO Center=  2.6D-01, -2.3D-01,  1.8D-16, r^2= 8.7D+00
   Bfn.  Coefficient  Atom+Function         Bfn.  Coefficient  Atom+Function  
  ----- ------------  ---------------      ----- ------------  ---------------
   111      0.215320   8 C  s                80      0.172737   6 C  pz        
   200     -0.172737  14 C  pz              107      0.150349   8 C  s         
   242      0.148973  24 H  s               248      0.148973  27 H  s         
    95     -0.141905   7 C  pz              185      0.141905  13 C  pz        
    79     -0.130275   6 C  py              199     -0.130275  14 C  py        

 Vector   41  Occ=2.000000D+00  E=-5.739030D-01  Symmetry=a'
              MO Center= -2.5D-01, -3.3D+00,  1.0D-13, r^2= 4.6D+00
   Bfn.  Coefficient  Atom+Function         Bfn.  Coefficient  Atom+Function  
  ----- ------------  ---------------      ----- ------------  ---------------
    18      0.307877   2 N  px                3     -0.218614   1 C  px        
    33     -0.218614   3 C  px              213     -0.217271  15 C  px        
    48     -0.202529   4 C  px               22      0.165803   2 N  px        
   254      0.113209  30 H  s               217     -0.105012  15 C  px        
     7     -0.096858   1 C  px               37     -0.096858   3 C  px        

 Vector   42  Occ=2.000000D+00  E=-5.733060D-01  Symmetry=a"
              MO Center= -6.2D-01, -3.4D+00, -6.3D-14, r^2= 4.0D+00
   Bfn.  Coefficient  Atom+Function         Bfn.  Coefficient  Atom+Function  
  ----- ------------  ---------------      ----- ------------  ---------------
   215      0.254744  15 C  pz                4      0.215997   1 C  py        
    34     -0.215997   3 C  py              228      0.163816  17 H  s         
   232     -0.163816  19 H  s                 5     -0.147025   1 C  pz        
    35     -0.147025   3 C  pz                3     -0.138427   1 C  px        
    33      0.138427   3 C  px              226     -0.138774  16 H  s         

 Vector   43  Occ=2.000000D+00  E=-5.719927D-01  Symmetry=a"
              MO Center= -3.2D-01, -3.3D+00, -5.3D-14, r^2= 5.0D+00
   Bfn.  Coefficient  Atom+Function         Bfn.  Coefficient  Atom+Function  
  ----- ------------  ---------------      ----- ------------  ---------------
    20     -0.253777   2 N  pz                5      0.241990   1 C  pz        
    35      0.241990   3 C  pz              215      0.221955  15 C  pz        
   226      0.150618  16 H  s               236     -0.150618  21 H  s         
    24     -0.142160   2 N  pz              227      0.130621  16 H  s         
   237     -0.130621  21 H  s               250      0.126444  28 H  s         

 Vector   44  Occ=2.000000D+00  E=-5.677651D-01  Symmetry=a'
              MO Center= -7.3D-01, -3.1D+00,  1.3D-14, r^2= 4.4D+00
   Bfn.  Coefficient  Atom+Function         Bfn.  Coefficient  Atom+Function  
  ----- ------------  ---------------      ----- ------------  ---------------
     4      0.255466   1 C  py               34      0.255466   3 C  py        
    19     -0.236284   2 N  py              213     -0.199312  15 C  px        
    48      0.156791   4 C  px              228      0.148564  17 H  s         
   232      0.148564  19 H  s               230     -0.138534  18 H  s         
   234     -0.138534  20 H  s                23     -0.129495   2 N  py        

 Vector   45  Occ=2.000000D+00  E=-5.626372D-01  Symmetry=a"
              MO Center=  3.6D-01, -1.3D-01,  2.6D-15, r^2= 5.7D+00
   Bfn.  Coefficient  Atom+Function         Bfn.  Coefficient  Atom+Function  
  ----- ------------  ---------------      ----- ------------  ---------------
    80      0.226432   6 C  pz              200      0.226432  14 C  pz        
    95      0.212468   7 C  pz              185      0.212468  13 C  pz        
    65     -0.157440   5 C  pz              110     -0.128992   8 C  pz        
    50      0.125946   4 C  pz              242      0.124854  24 H  s         
   248     -0.124854  27 H  s               244      0.124206  25 H  s         

 Vector   46  Occ=2.000000D+00  E=-5.538839D-01  Symmetry=a"
              MO Center=  6.0D-01, -1.0D+00,  1.8D-15, r^2= 7.3D+00
   Bfn.  Coefficient  Atom+Function         Bfn.  Coefficient  Atom+Function  
  ----- ------------  ---------------      ----- ------------  ---------------
    50      0.313778   4 C  pz               79      0.181979   6 C  py        
   199     -0.181979  14 C  py              238     -0.172406  22 H  s         
   240      0.172406  23 H  s                20     -0.162240   2 N  pz        
    94     -0.154954   7 C  py              184      0.154954  13 C  py        
    54      0.147841   4 C  pz              239     -0.142057  22 H  s         

 Vector   47  Occ=2.000000D+00  E=-5.436322D-01  Symmetry=a'
              MO Center= -3.0D-01,  3.6D+00,  3.2D-14, r^2= 3.2D+00
   Bfn.  Coefficient  Atom+Function         Bfn.  Coefficient  Atom+Function  
  ----- ------------  ---------------      ----- ------------  ---------------
   139      0.339268  10 F  py              153      0.331075  11 F  px        
   168      0.331075  12 F  px              143      0.241603  10 F  py        
   157      0.227923  11 F  px              172      0.227923  12 F  px        
   155      0.157680  11 F  pz              170     -0.157680  12 F  pz        
   159      0.109416  11 F  pz              174     -0.109416  12 F  pz        

 Vector   48  Occ=2.000000D+00  E=-5.399086D-01  Symmetry=a"
              MO Center= -5.4D-02,  3.5D+00, -3.7D-14, r^2= 3.8D+00
   Bfn.  Coefficient  Atom+Function         Bfn.  Coefficient  Atom+Function  
  ----- ------------  ---------------      ----- ------------  ---------------
   140      0.393242  10 F  pz              154      0.288299  11 F  py        
   169     -0.288299  12 F  py              144      0.258888  10 F  pz        
   158      0.206511  11 F  py              173     -0.206511  12 F  py        
   155      0.172765  11 F  pz              170      0.172765  12 F  pz        
   114     -0.156797   8 C  pz              129      0.140535   9 C  pz        

 Vector   49  Occ=2.000000D+00  E=-5.233564D-01  Symmetry=a'
              MO Center=  2.8D-01,  3.5D-01, -5.9D-15, r^2= 7.8D+00
   Bfn.  Coefficient  Atom+Function         Bfn.  Coefficient  Atom+Function  
  ----- ------------  ---------------      ----- ------------  ---------------
    64      0.271895   5 C  py               49     -0.246977   4 C  py        
   154      0.193336  11 F  py              169      0.193336  12 F  py        
    94      0.184513   7 C  py              184      0.184513  13 C  py        
    79     -0.148744   6 C  py              199     -0.148744  14 C  py        
    53     -0.141335   4 C  py               19      0.128165   2 N  py        

 Vector   50  Occ=2.000000D+00  E=-5.142480D-01  Symmetry=a'
              MO Center=  2.6D-01,  2.1D+00,  2.4D-16, r^2= 6.0D+00
   Bfn.  Coefficient  Atom+Function         Bfn.  Coefficient  Atom+Function  
  ----- ------------  ---------------      ----- ------------  ---------------
   138      0.319786  10 F  px              153      0.219315  11 F  px        
   168      0.219315  12 F  px              142      0.217342  10 F  px        
   108      0.171954   8 C  px               93      0.151927   7 C  px        
   183      0.151927  13 C  px              157      0.145217  11 F  px        
   172      0.145217  12 F  px              139     -0.144006  10 F  py        

 Vector   51  Occ=2.000000D+00  E=-5.016668D-01  Symmetry=a"
              MO Center= -6.0D-01,  3.6D+00, -1.8D-14, r^2= 2.4D+00
   Bfn.  Coefficient  Atom+Function         Bfn.  Coefficient  Atom+Function  
  ----- ------------  ---------------      ----- ------------  ---------------
[...]
   91 Torsion                  1     2    15    28         -60.34534    0.24301
   92 Torsion                  1     2    15    29         179.56744    0.31126
   93 Torsion                  1     2    15    30          59.61105    0.27713
   94 Torsion                  2     4     5     6          91.51314    1.13291
   95 Torsion                  2     4     5    14         -91.51314   -1.13291
   96 Torsion                  3     2     1    16         178.82632   -4.20856
   97 Torsion                  3     2     1    17         -60.91274   -4.97026
   98 Torsion                  3     2     1    18          59.15917   -4.14770
   99 Torsion                  3     2     4     5          60.69882   -0.22316
  100 Torsion                  3     2     4    22         -62.31439   -0.17412
  101 Torsion                  3     2     4    23        -176.28797   -0.27220
  102 Torsion                  3     2    15    28        -179.56744   -0.31126
  103 Torsion                  3     2    15    29          60.34534   -0.24301
  104 Torsion                  3     2    15    30         -59.61105   -0.27713
  105 Torsion                  4     2     1    16         -58.85178   -4.88035
  106 Torsion                  4     2     1    17          61.40916   -5.64204
  107 Torsion                  4     2     1    18        -178.51894   -4.81948
  108 Torsion                  4     2     3    19         -61.40916    5.64204
  109 Torsion                  4     2     3    20         178.51894    4.81948
  110 Torsion                  4     2     3    21          58.85178    4.88035
  111 Torsion                  4     2    15    28          60.04361   -0.03413
  112 Torsion                  4     2    15    29         -60.04361    0.03413
  113 Torsion                  4     2    15    30         180.00000    0.00000
  114 Torsion                  4     5     6     7         178.43934   -1.85903
  115 Torsion                  4     5     6    24          -0.41218   -1.56276
  116 Torsion                  4     5    14    13        -178.43934    1.85903
  117 Torsion                  4     5    14    27           0.41218    1.56276
  118 Torsion                  5     4     2    15         180.00000    0.00000
  119 Torsion                  5     6     7     8          -0.50240   -0.49836
  120 Torsion                  5     6     7    25         179.81541   -0.60548
  121 Torsion                  5    14    13     8           0.50240    0.49836
  122 Torsion                  5    14    13    26        -179.81541    0.60548
  123 Torsion                  6     5     4    22        -149.13948   -1.04895
  124 Torsion                  6     5     4    23         -27.83425    3.31476
  125 Torsion                  6     5    14    13          -1.42105   -0.37763
  126 Torsion                  6     5    14    27         177.43047   -0.67390
  127 Torsion                  6     7     8     9        -177.44801    1.45714
  128 Torsion                  6     7     8    13          -0.43950    0.59776
  129 Torsion                  7     6     5    14           1.42105    0.37763
  130 Torsion                  7     8     9    10          88.51030   -0.40359
  131 Torsion                  7     8     9    11         -31.21029   -0.11897
  132 Torsion                  7     8     9    12        -151.76911   -0.68821
  133 Torsion                  7     8    13    14           0.43950   -0.59776
  134 Torsion                  7     8    13    26        -179.24360   -0.70727
  135 Torsion                  8     7     6    24         178.36107   -0.80542
  136 Torsion                  8    13    14    27        -178.36107    0.80542
  137 Torsion                  9     8     7    25           2.23509    1.56665
  138 Torsion                  9     8    13    14         177.44801   -1.45714
  139 Torsion                  9     8    13    26          -2.23509   -1.56665
  140 Torsion                 10     9     8    13         -88.51030    0.40359
  141 Torsion                 11     9     8    13         151.76911    0.68821
  142 Torsion                 12     9     8    13          31.21029    0.11897
  143 Torsion                 13     8     7    25         179.24360    0.70727
  144 Torsion                 14     5     4    22          27.83425   -3.31476
  145 Torsion                 14     5     4    23         149.13948    1.04895
  146 Torsion                 14     5     6    24        -177.43047    0.67390
  147 Torsion                 15     2     1    16          59.69324   -5.00902
  148 Torsion                 15     2     1    17         179.95418   -5.77072
  149 Torsion                 15     2     1    18         -59.97391   -4.94816
  150 Torsion                 15     2     3    19        -179.95418    5.77072
  151 Torsion                 15     2     3    20          59.97391    4.94816
  152 Torsion                 15     2     3    21         -59.69324    5.00902
  153 Torsion                 15     2     4    22          56.98679    0.04904
  154 Torsion                 15     2     4    23         -56.98679   -0.04904
  155 Torsion                 24     6     7    25          -1.32113   -0.91254
  156 Torsion                 26    13    14    27           1.32113    0.91254

 ==============================================================================
                                internuclear distances
 ------------------------------------------------------------------------------
       center one      |      center two      | atomic units |  angstroms
 ------------------------------------------------------------------------------
    2 N                |   1 C                |     2.84593  |     1.50600
    3 C                |   2 N                |     2.84593  |     1.50600
    4 C                |   2 N                |     2.93840  |     1.55493
    5 C                |   4 C                |     2.84260  |     1.50424
    6 C                |   5 C                |     2.65259  |     1.40369
    7 C                |   6 C                |     2.63184  |     1.39271
    8 C                |   7 C                |     2.63959  |     1.39681
    9 C                |   8 C                |     2.86065  |     1.51379
   10 F                |   9 C                |     2.54437  |     1.34642
   11 F                |   9 C                |     2.54467  |     1.34658
   12 F                |   9 C                |     2.54467  |     1.34658
   13 C                |   8 C                |     2.63959  |     1.39681
   14 C                |   5 C                |     2.65259  |     1.40369
   14 C                |  13 C                |     2.63184  |     1.39271
   15 C                |   2 N                |     2.84883  |     1.50753
   16 H                |   1 C                |     2.06196  |     1.09114
   17 H                |   1 C                |     2.05845  |     1.08928
   18 H                |   1 C                |     2.06190  |     1.09111
   19 H                |   3 C                |     2.05845  |     1.08928
   20 H                |   3 C                |     2.06190  |     1.09111
   21 H                |   3 C                |     2.06196  |     1.09114
   22 H                |   4 C                |     2.06511  |     1.09281
   23 H                |   4 C                |     2.06511  |     1.09281
   24 H                |   6 C                |     2.05441  |     1.08715
   25 H                |   7 C                |     2.04954  |     1.08457
   26 H                |  13 C                |     2.04954  |     1.08457
   27 H                |  14 C                |     2.05441  |     1.08715
   28 H                |  15 C                |     2.06169  |     1.09100
   29 H                |  15 C                |     2.06169  |     1.09100
   30 H                |  15 C                |     2.06193  |     1.09112
 ------------------------------------------------------------------------------
                         number of included internuclear distances:         30
 ==============================================================================



 ==============================================================================
                                 internuclear angles
 ------------------------------------------------------------------------------
        center 1       |       center 2       |       center 3       |  degrees
 ------------------------------------------------------------------------------
    2 N                |   1 C                |  16 H                |   108.93
    2 N                |   1 C                |  17 H                |   109.06
    2 N                |   1 C                |  18 H                |   108.58
   16 H                |   1 C                |  17 H                |   110.16
   16 H                |   1 C                |  18 H                |   109.90
   17 H                |   1 C                |  18 H                |   110.17
    1 C                |   2 N                |   3 C                |   109.22
    1 C                |   2 N                |   4 C                |   110.80
    1 C                |   2 N                |  15 C                |   109.08
    3 C                |   2 N                |   4 C                |   110.80
    3 C                |   2 N                |  15 C                |   109.08
    4 C                |   2 N                |  15 C                |   107.83
    2 N                |   3 C                |  19 H                |   109.06
    2 N                |   3 C                |  20 H                |   108.58
    2 N                |   3 C                |  21 H                |   108.93
   19 H                |   3 C                |  20 H                |   110.17
   19 H                |   3 C                |  21 H                |   110.16
   20 H                |   3 C                |  21 H                |   109.90
    2 N                |   4 C                |   5 C                |   115.66
    2 N                |   4 C                |  22 H                |   104.64
    2 N                |   4 C                |  23 H                |   104.64
    5 C                |   4 C                |  22 H                |   111.45
    5 C                |   4 C                |  23 H                |   111.45
   22 H                |   4 C                |  23 H                |   108.45
    4 C                |   5 C                |   6 C                |   120.47
    4 C                |   5 C                |  14 C                |   120.47
    6 C                |   5 C                |  14 C                |   118.99
    5 C                |   6 C                |   7 C                |   120.57
    5 C                |   6 C                |  24 H                |   120.23
    7 C                |   6 C                |  24 H                |   119.18
    6 C                |   7 C                |   8 C                |   119.80
    6 C                |   7 C                |  25 H                |   120.24
    8 C                |   7 C                |  25 H                |   119.96
    7 C                |   8 C                |   9 C                |   119.84
    7 C                |   8 C                |  13 C                |   120.24
    9 C                |   8 C                |  13 C                |   119.84
    8 C                |   9 C                |  10 F                |   110.75
    8 C                |   9 C                |  11 F                |   111.15
    8 C                |   9 C                |  12 F                |   111.15
   10 F                |   9 C                |  11 F                |   107.73
   10 F                |   9 C                |  12 F                |   107.73
   11 F                |   9 C                |  12 F                |   108.18
    8 C                |  13 C                |  14 C                |   119.80
    8 C                |  13 C                |  26 H                |   119.96
   14 C                |  13 C                |  26 H                |   120.24
    5 C                |  14 C                |  13 C                |   120.57
    5 C                |  14 C                |  27 H                |   120.23
   13 C                |  14 C                |  27 H                |   119.18
    2 N                |  15 C                |  28 H                |   109.03
    2 N                |  15 C                |  29 H                |   109.03
    2 N                |  15 C                |  30 H                |   108.93
   28 H                |  15 C                |  29 H                |   109.98
   28 H                |  15 C                |  30 H                |   109.92
   29 H                |  15 C                |  30 H                |   109.92
 ------------------------------------------------------------------------------
                            number of included internuclear angles:         54
 ==============================================================================




 Task  times  cpu:      863.0s     wall:      863.0s


                                NWChem Input Module
                                -------------------




                     NWChem Electrostatic Potential Fit Module
                     -----------------------------------------


 Atom parameters

 Number of atoms is                                   30
 Number of basis functions is                        255


 Grid parameters

 Maximum number of grid points is                  10625
 Number of grid points is                          10624
 Grid range                                     0.200000 nm
 Grid spacing                                   0.025000 nm
 Probe radius                                   0.100000 nm
 Atom radius factor                             1.000000

 Atomic radii

    1    0.130000
    6    0.177000
    7    0.170000
    9    0.158000
 FASTESP  F
  using M.O. file = ./CF3.movecs


    Atom              Coordinates                           Charge

                                                  ESP   
                                                        
 
    1 C    -0.105360   -0.313826    0.122774   -0.291882
    2 N    -0.020545   -0.334156    0.000000    0.365510
    3 C    -0.105360   -0.313826   -0.122774   -0.282351
    4 C     0.100798   -0.236924    0.000000   -0.282285
    5 C     0.066855   -0.090380    0.000000    0.187359
    6 C     0.053905   -0.020309    0.120937   -0.179667
    7 C     0.025674    0.116071    0.121116   -0.072597
    8 C     0.011117    0.184113    0.000000   -0.060437
    9 C    -0.013820    0.333424    0.000000    0.592644
   10 F     0.102516    0.401207    0.000000   -0.180235
   11 F    -0.083236    0.371088    0.109067   -0.185924
   12 F    -0.083236    0.371088   -0.109067   -0.185892
   13 C     0.025674    0.116071   -0.121116   -0.074674
   14 C     0.053905   -0.020309   -0.120937   -0.179453
   15 C     0.033184   -0.475010    0.000000   -0.384201
   16 H    -0.043978   -0.330713    0.211391    0.146733
   17 H    -0.144103   -0.212020    0.122792    0.133159
   18 H    -0.187674   -0.385408    0.120416    0.151606
   19 H    -0.144103   -0.212020   -0.122792    0.130397
   20 H    -0.187674   -0.385408   -0.120416    0.149037
   21 H    -0.043978   -0.330713   -0.211391    0.144475
   22 H     0.158379   -0.264603   -0.088660    0.147336
   23 H     0.158379   -0.264603    0.088660    0.147132
   24 H     0.067688   -0.071716    0.215733    0.132324
   25 H     0.015487    0.169616    0.214881    0.144919
   26 H     0.015487    0.169616   -0.214881    0.145654
   27 H     0.067688   -0.071716   -0.215733    0.132444
   28 H     0.093981   -0.489893    0.089359    0.168541
   29 H     0.093981   -0.489893   -0.089359    0.168657
   30 H    -0.050632   -0.544870    0.000000    0.171672
                                            ------------
                                                1.000000

 Dipole moment                                  3.641529

 Quadrupole moment Qxx                        -19.393266
                   Qyy                         20.422355
                   Qzz                         -1.029089

 RMS deviation kJ/mol                           0.061933

 RRMS %                                         1.811969

 Task  times  cpu:       34.5s     wall:       34.5s


                                NWChem Input Module
                                -------------------


 Summary of allocated global arrays
-----------------------------------
  No active global arrays



                         GA Statistics for process    0
                         ------------------------------

       create   destroy   get      put      acc     scatter   gather  read&inc
calls: 1407     1407     4.58e+06 1.81e+05 2.09e+06    0        0     1.53e+05 
number of processes/call 0.00e+00 0.00e+00 0.00e+00 0.00e+00 0.00e+00
bytes total:             4.16e+09 6.32e+08 1.53e+09 0.00e+00 0.00e+00 1.23e+06
bytes remote:            0.00e+00 0.00e+00 0.00e+00 0.00e+00 0.00e+00 0.00e+00
Max memory consumed for GA by this process: 20287800 bytes

MA_summarize_allocated_blocks: starting scan ...
MA_summarize_allocated_blocks: scan completed: 0 heap blocks, 0 stack blocks
MA usage statistics:

	allocation statistics:
					      heap	     stack
					      ----	     -----
	current number of blocks	         0	         0
	maximum number of blocks	        25	        57
	current total bytes		         0	         0
	maximum total bytes		  14286912	  33945640
	maximum total K-bytes		     14287	     33946
	maximum total M-bytes		        15	        34


                                     CITATION
                                     --------
                Please cite the following reference when publishing
                           results obtained with NWChem:

                 M. Valiev, E.J. Bylaska, N. Govind, K. Kowalski,
              T.P. Straatsma, H.J.J. van Dam, D. Wang, J. Nieplocha,
                        E. Apra, T.L. Windus, W.A. de Jong
                 "NWChem: a comprehensive and scalable open-source
                  solution for large scale molecular simulations"
                      Comput. Phys. Commun. 181, 1477 (2010)
                           doi:10.1016/j.cpc.2010.04.018

                                      AUTHORS
                                      -------
     E. Apra, E. J. Bylaska, N. Govind, K. Kowalski, M. Valiev, W. A. de Jong,
      T. P. Straatsma, H. J. J. van Dam, D. Wang, T. L. Windus, N. P. Bauman,
       A. Panyala, J. Hammond, J. Autschbach, K. Bhaskaran-Nair, J. Brabec,
    K. Lopata, S. A. Fischer, S. Krishnamoorthy, M. Jacquelin, W. Ma, M. Klemm,
       O. Villa, Y. Chen, V. Anisimov, F. Aquino, S. Hirata, M. T. Hackler,
           Eric Hermes, L. Jensen, J. E. Moore, J. C. Becca, V. Konjkov,
            D. Mejia-Rodriguez, T. Risthaus, M. Malagoli, A. Marenich,
   A. Otero-de-la-Roza, J. Mullin, P. Nichols, R. Peverati, J. Pittner, Y. Zhao,
        P.-D. Fan, A. Fonari, M. J. Williamson, R. J. Harrison, J. R. Rehr,
      M. Dupuis, D. Silverstein, D. M. A. Smith, J. Nieplocha, V. Tipparaju,
      M. Krishnan, B. E. Van Kuiken, A. Vazquez-Mayagoitia, M. Swart, Q. Wu,
   T. Van Voorhis, A. A. Auer, M. Nooijen, L. D. Crosby, E. Brown, G. Cisneros,
     G. I. Fann, H. Fruchtl, J. Garza, K. Hirao, R. A. Kendall, J. A. Nichols,
       K. Tsemekhman, K. Wolinski, J. Anchell, D. E. Bernholdt, P. Borowski,
       T. Clark, D. Clerc, H. Dachsel, M. J. O. Deegan, K. Dyall, D. Elwood,
      E. Glendening, M. Gutowski, A. C. Hess, J. Jaffe, B. G. Johnson, J. Ju,
        R. Kobayashi, R. Kutteh, Z. Lin, R. Littlefield, X. Long, B. Meng,
      T. Nakajima, S. Niu, L. Pollack, M. Rosing, K. Glaesemann, G. Sandrone,
      M. Stave, H. Taylor, G. Thomas, J. H. van Lenthe, A. T. Wong, Z. Zhang.

 Total times  cpu:      897.8s     wall:      897.8s
