 argument  1 = /Users/apple/Desktop/王应泽/本科生科研/Science_Denmark/复现/NWChem_calc/H/H.nw



============================== echo of input deck ==============================
echo
title H_ESP_Calculation
start H

geometry
	C	-2.94710971894      	0.226708601242      	-0.540723597772
	N	-1.56597338163      	0.0815458617579     	0.0905977715883
	C	-1.36057303028      	1.21578488661       	1.08380459489
	C	-0.516375886017     	0.137063410968      	-1.03981832435
	C	0.928988144079      	0.0108326159448     	-0.628604037866
	C	1.68641561026       	1.15092869983       	-0.314842651555
	C	3.02105770203       	1.03114731222       	0.075770065473
	C	3.61639660776       	-0.22542099161      	0.151000603882
	C	2.88206276178       	-1.36392103872      	-0.170903867323
	C	1.54718165752       	-1.24827610625      	-0.561943831529
	C	-1.50346183816      	-1.24670013416      	0.830192134571
	H	-2.99173122656      	1.18842661037       	-1.06051452194
	H	-3.69958132033      	0.188660624497      	0.252782775037
	H	-3.09539027615      	-0.597815181886     	-1.24446253232
	H	-2.18995514653      	1.20289400973       	1.79790313486
	H	-0.418158496818     	1.06132303907       	1.61541907594
	H	-1.34947052622      	2.16146788517       	0.534146812652
	H	-0.771587581003     	-0.662411716787     	-1.74766075817
	H	-0.670035851484     	1.08751211004       	-1.56742616345
	H	1.25517657423       	2.14798288685       	-0.3806091954
	H	3.60461187263       	1.91857861982       	0.31346576691
	H	4.65906506952       	-0.316631291997     	0.449069557322
	H	3.35735503088       	-2.34197508887      	-0.125337662112
	H	1.00545432639       	-2.15512330423      	-0.823798662195
	H	-0.555901264605     	-1.31234191693      	1.37096766047
	H	-1.59417077967      	-2.05593028015      	0.0997939152292
	H	-2.33428903268      	-1.28431012253      	1.54173193716
end

charge 1

basis
	* library 6-31G*
end

dft
	xc b3lyp
	maxiter 1000
end
task dft optimize

esp
	recalculate
	range 0.2
	probe 0.1
	spacing 0.025
end
task esp
================================================================================


                                         
                                         


             Northwest Computational Chemistry Package (NWChem) 7.0.0
             --------------------------------------------------------


                    Environmental Molecular Sciences Laboratory
                       Pacific Northwest National Laboratory
                                Richland, WA 99352

                              Copyright (c) 1994-2019
                       Pacific Northwest National Laboratory
                            Battelle Memorial Institute

             NWChem is an open-source computational chemistry package
                        distributed under the terms of the
                      Educational Community License (ECL) 2.0
             A copy of the license is included with this distribution
                              in the LICENSE.TXT file

                                  ACKNOWLEDGMENT
                                  --------------

            This software and its documentation were developed at the
            EMSL at Pacific Northwest National Laboratory, a multiprogram
            national laboratory, operated for the U.S. Department of Energy
            by Battelle under Contract Number DE-AC05-76RL01830. Support
            for this work was provided by the Department of Energy Office
            of Biological and Environmental Research, Office of Basic
            Energy Sciences, and the Office of Advanced Scientific Computing.


           Job information
           ---------------

    hostname        = appledeMacBook-Pro.local
    program         = nwchem
    date            = Wed Jul 22 12:47:11 2020

    compiled        = Fri_Jul_03_06:05:09_2020
    source          = /private/tmp/nwchem-20200703-71421-tc8c0i/nwchem-7.0.0
    nwchem branch   = 7.0.0
    nwchem revision = 2c9a1c7c
    ga revision     = 5.7.1
    use scalapack   = T
    input           = /Users/apple/Desktop/王应泽/本科生科研/Science_Denmark/复现/NWChem_calc/H/H.nw
    prefix          = H.
    data base       = ./H.db
    status          = startup
    nproc           =        1
    time left       =     -1s



           Memory information
           ------------------

    heap     =   13107196 doubles =    100.0 Mbytes
    stack    =   13107201 doubles =    100.0 Mbytes
    global   =   26214400 doubles =    200.0 Mbytes (distinct from heap & stack)
    total    =   52428797 doubles =    400.0 Mbytes
    verify   = yes
    hardfail = no 


           Directory information
           ---------------------

  0 permanent = .
  0 scratch   = .




                                NWChem Input Module
                                -------------------


                                 H_ESP_Calculation
                                 -----------------

 Scaling coordinates for geometry "geometry" by  1.889725989
 (inverse scale =  0.529177249)

 CS  symmetry detected

          ------
          auto-z
          ------
  no constraints, skipping    0.0000000000000000     
  no constraints, skipping    0.0000000000000000     


                             Geometry "geometry" -> ""
                             -------------------------

 Output coordinates in angstroms (scale by  1.889725989 to convert to a.u.)

  No.       Tag          Charge          X              Y              Z
 ---- ---------------- ---------- -------------- -------------- --------------
    1 C                    6.0000    -0.61347319     3.26342214     0.00000000
    2 N                    7.0000     0.07610527     1.90266573     0.00000000
    3 C                    6.0000     0.95194627     1.79823202     1.23981541
    4 C                    6.0000    -1.01761779     0.81346992     0.00000000
    5 C                    6.0000    -0.54661050    -0.61910145     0.00000000
    6 C                    6.0000    -0.32797153    -1.30101158     1.20795579
    7 C                    6.0000     0.11812455    -2.62358045     1.20587313
    8 C                    6.0000     0.34423996    -3.28221032     0.00000000
    9 C                    6.0000     0.11812455    -2.62358045    -1.20587313
   10 C                    6.0000    -0.32797153    -1.30101158    -1.20795579
   11 C                    6.0000     0.95194627     1.79823202    -1.23981541
   12 H                    1.0000    -1.23197809     3.33902890     0.89933890
   13 H                    1.0000     0.15364656     4.04370466     0.00000000
   14 H                    1.0000    -1.23197809     3.33902890    -0.89933890
   15 H                    1.0000     1.63489324     2.65345476     1.25226199
   16 H                    1.0000     1.52849147     0.87075501     1.19509570
   17 H                    1.0000     0.30731223     1.81617440     2.12338103
   18 H                    1.0000    -1.64643449     0.99695334    -0.88105486
   19 H                    1.0000    -1.64643449     0.99695334     0.88105486
   20 H                    1.0000    -0.51202706    -0.81970324     2.16653531
   21 H                    1.0000     0.28161483    -3.14862552     2.14511085
   22 H                    1.0000     0.68544982    -4.31560172     0.00000000
   23 H                    1.0000     0.28161483    -3.14862552    -2.14511085
   24 H                    1.0000    -0.51202706    -0.81970324    -2.16653531
   25 H                    1.0000     1.52849147     0.87075501    -1.19509570
   26 H                    1.0000     0.30731223     1.81617440    -2.12338103
   27 H                    1.0000     1.63489324     2.65345476    -1.25226199

      Atomic Mass 
      ----------- 

      C                 12.000000
      N                 14.003070
      H                  1.007825


 Effective nuclear repulsion energy (a.u.)     622.9578526688

            Nuclear Dipole moment (a.u.) 
            ----------------------------
        X                 Y               Z
 ---------------- ---------------- ----------------
     0.0000000000     0.0000000000     0.0000000000

      Symmetry information
      --------------------

 Group name             Cs        
 Group number              2
 Group order               2
 No. of unique centers    17

      Symmetry unique atoms

     1    2    3    4    5    6    7    8   12   13   15   16   17   18   20
    21   22



                                Z-matrix (autoz)
                                -------- 

 Units are Angstrom for bonds and degrees for angles

      Type          Name      I     J     K     L     M      Value
      ----------- --------  ----- ----- ----- ----- ----- ----------
    1 Stretch                  1     2                       1.52551
    2 Stretch                  1    12                       1.09411
    3 Stretch                  1    13                       1.09422
    4 Stretch                  1    14                       1.09411
    5 Stretch                  2     3                       1.52156
    6 Stretch                  2     4                       1.54356
    7 Stretch                  2    11                       1.52156
    8 Stretch                  3    15                       1.09452
    9 Stretch                  3    16                       1.09299
   10 Stretch                  3    17                       1.09388
   11 Stretch                  4     5                       1.50801
   12 Stretch                  4    18                       1.09788
   13 Stretch                  4    19                       1.09788
   14 Stretch                  5     6                       1.40427
   15 Stretch                  5    10                       1.40427
   16 Stretch                  6     7                       1.39578
   17 Stretch                  6    20                       1.08831
   18 Stretch                  7     8                       1.39250
   19 Stretch                  7    21                       1.08838
   20 Stretch                  8     9                       1.39250
   21 Stretch                  8    22                       1.08827
   22 Stretch                  9    10                       1.39578
   23 Stretch                  9    23                       1.08838
   24 Stretch                 10    24                       1.08831
   25 Stretch                 11    25                       1.09299
   26 Stretch                 11    26                       1.09388
   27 Stretch                 11    27                       1.09452
   28 Bend                     1     2     3               108.74895
   29 Bend                     1     2     4               108.00705
   30 Bend                     1     2    11               108.74895
   31 Bend                     2     1    12               108.49223
   32 Bend                     2     1    13               108.61325
   33 Bend                     2     1    14               108.49223
   34 Bend                     2     3    15               108.34905
   35 Bend                     2     3    16               109.18023
   36 Bend                     2     3    17               108.53146
   37 Bend                     2     4     5               116.68111
   38 Bend                     2     4    18               106.73281
   39 Bend                     2     4    19               106.73281
   40 Bend                     2    11    25               109.18023
   41 Bend                     2    11    26               108.53146
   42 Bend                     2    11    27               108.34905
   43 Bend                     3     2     4               111.06557
   44 Bend                     3     2    11               109.14142
   45 Bend                     4     2    11               111.06557
   46 Bend                     4     5     6               120.65950
   47 Bend                     4     5    10               120.65950
   48 Bend                     5     4    18               109.73420
   49 Bend                     5     4    19               109.73420
   50 Bend                     5     6     7               120.57110
   51 Bend                     5     6    20               121.10300
   52 Bend                     5    10     9               120.57110
   53 Bend                     5    10    24               121.10300
   54 Bend                     6     5    10               118.67915
   55 Bend                     6     7     8               120.09042
   56 Bend                     6     7    21               120.25366
   57 Bend                     7     6    20               118.32189
   58 Bend                     7     8     9               119.98918
   59 Bend                     7     8    22               120.00311
   60 Bend                     8     7    21               119.65315
   61 Bend                     8     9    10               120.09042
   62 Bend                     8     9    23               119.65315
   63 Bend                     9     8    22               120.00311
   64 Bend                     9    10    24               118.32189
   65 Bend                    10     9    23               120.25366
   66 Bend                    12     1    13               110.30629
   67 Bend                    12     1    14               110.56753
   68 Bend                    13     1    14               110.30629
   69 Bend                    15     3    16               109.53426
   70 Bend                    15     3    17               110.22517
   71 Bend                    16     3    17               110.96681
   72 Bend                    18     4    19               106.74048
   73 Bend                    25    11    26               110.96681
   74 Bend                    25    11    27               109.53426
   75 Bend                    26    11    27               110.22517
   76 Torsion                  1     2     3    15         -54.95429
   77 Torsion                  1     2     3    16        -174.18694
   78 Torsion                  1     2     3    17          64.73688
   79 Torsion                  1     2     4     5         180.00000
   80 Torsion                  1     2     4    18          56.92848
   81 Torsion                  1     2     4    19         -56.92848
   82 Torsion                  1     2    11    25         174.18694
   83 Torsion                  1     2    11    26         -64.73688
   84 Torsion                  1     2    11    27          54.95429
   85 Torsion                  2     4     5     6          90.25064
   86 Torsion                  2     4     5    10         -90.25064
   87 Torsion                  3     2     1    12         -60.54663
   88 Torsion                  3     2     1    13          59.37195
   89 Torsion                  3     2     1    14         179.29052
   90 Torsion                  3     2     4     5         -60.83111
   91 Torsion                  3     2     4    18         176.09737
   92 Torsion                  3     2     4    19          62.24041
   93 Torsion                  3     2    11    25          55.68993
   94 Torsion                  3     2    11    26         176.76611
   95 Torsion                  3     2    11    27         -63.54273
   96 Torsion                  4     2     1    12          60.08143
   97 Torsion                  4     2     1    13         180.00000
   98 Torsion                  4     2     1    14         -60.08143
   99 Torsion                  4     2     3    15        -173.67752
  100 Torsion                  4     2     3    16          67.08982
  101 Torsion                  4     2     3    17         -53.98636
  102 Torsion                  4     2    11    25         -67.08982
  103 Torsion                  4     2    11    26          53.98636
  104 Torsion                  4     2    11    27         173.67752
  105 Torsion                  4     5     6     7        -179.49064
  106 Torsion                  4     5     6    20           1.24975
  107 Torsion                  4     5    10     9         179.49064
  108 Torsion                  4     5    10    24          -1.24975
  109 Torsion                  5     4     2    11          60.83111
  110 Torsion                  5     6     7     8          -0.33181
  111 Torsion                  5     6     7    21        -179.72471
  112 Torsion                  5    10     9     8           0.33181
  113 Torsion                  5    10     9    23         179.72471
  114 Torsion                  6     5     4    18        -148.24281
  115 Torsion                  6     5     4    19         -31.25591
  116 Torsion                  6     5    10     9          -1.00087
  117 Torsion                  6     5    10    24         178.25875
  118 Torsion                  6     7     8     9          -0.35707
  119 Torsion                  6     7     8    22        -179.57701
  120 Torsion                  7     6     5    10           1.00087
  121 Torsion                  7     8     9    10           0.35707
  122 Torsion                  7     8     9    23        -179.03948
  123 Torsion                  8     7     6    20         178.94804
  124 Torsion                  8     9    10    24        -178.94804
  125 Torsion                  9     8     7    21         179.03948
  126 Torsion                 10     5     4    18          31.25591
  127 Torsion                 10     5     4    19         148.24281
  128 Torsion                 10     5     6    20        -178.25875
  129 Torsion                 10     9     8    22         179.57701
  130 Torsion                 11     2     1    12        -179.29052
  131 Torsion                 11     2     1    13         -59.37195
  132 Torsion                 11     2     1    14          60.54663
  133 Torsion                 11     2     3    15          63.54273
  134 Torsion                 11     2     3    16         -55.68993
  135 Torsion                 11     2     3    17        -176.76611
  136 Torsion                 11     2     4    18         -62.24041
  137 Torsion                 11     2     4    19        -176.09737
  138 Torsion                 20     6     7    21          -0.44486
  139 Torsion                 21     7     8    22          -0.18046
  140 Torsion                 22     8     9    23           0.18046
  141 Torsion                 23     9    10    24           0.44486


            XYZ format geometry
            -------------------
    27
 geometry
 C                    -0.61347319     3.26342214     0.00000000
 N                     0.07610527     1.90266573     0.00000000
 C                     0.95194627     1.79823202     1.23981541
 C                    -1.01761779     0.81346992     0.00000000
 C                    -0.54661050    -0.61910145     0.00000000
 C                    -0.32797153    -1.30101158     1.20795579
 C                     0.11812455    -2.62358045     1.20587313
 C                     0.34423996    -3.28221032     0.00000000
 C                     0.11812455    -2.62358045    -1.20587313
 C                    -0.32797153    -1.30101158    -1.20795579
 C                     0.95194627     1.79823202    -1.23981541
 H                    -1.23197809     3.33902890     0.89933890
 H                     0.15364656     4.04370466     0.00000000
 H                    -1.23197809     3.33902890    -0.89933890
 H                     1.63489324     2.65345476     1.25226199
 H                     1.52849147     0.87075501     1.19509570
 H                     0.30731223     1.81617440     2.12338103
 H                    -1.64643449     0.99695334    -0.88105486
 H                    -1.64643449     0.99695334     0.88105486
 H                    -0.51202706    -0.81970324     2.16653531
 H                     0.28161483    -3.14862552     2.14511085
 H                     0.68544982    -4.31560172     0.00000000
 H                     0.28161483    -3.14862552    -2.14511085
 H                    -0.51202706    -0.81970324    -2.16653531
 H                     1.52849147     0.87075501    -1.19509570
 H                     0.30731223     1.81617440    -2.12338103
 H                     1.63489324     2.65345476    -1.25226199

 ==============================================================================
                                internuclear distances
 ------------------------------------------------------------------------------
       center one      |      center two      | atomic units |  angstroms
 ------------------------------------------------------------------------------
    2 N                |   1 C                |     2.88279  |     1.52551
    3 C                |   2 N                |     2.87533  |     1.52156
    4 C                |   2 N                |     2.91691  |     1.54356
    5 C                |   4 C                |     2.84973  |     1.50801
    6 C                |   5 C                |     2.65368  |     1.40427
    7 C                |   6 C                |     2.63764  |     1.39578
    8 C                |   7 C                |     2.63144  |     1.39250
    9 C                |   8 C                |     2.63144  |     1.39250
   10 C                |   5 C                |     2.65368  |     1.40427
   10 C                |   9 C                |     2.63764  |     1.39578
   11 C                |   2 N                |     2.87533  |     1.52156
   12 H                |   1 C                |     2.06757  |     1.09411
   13 H                |   1 C                |     2.06777  |     1.09422
   14 H                |   1 C                |     2.06757  |     1.09411
   15 H                |   3 C                |     2.06835  |     1.09452
   16 H                |   3 C                |     2.06544  |     1.09299
   17 H                |   3 C                |     2.06712  |     1.09388
   18 H                |   4 C                |     2.07469  |     1.09788
   19 H                |   4 C                |     2.07469  |     1.09788
   20 H                |   6 C                |     2.05660  |     1.08831
   21 H                |   7 C                |     2.05674  |     1.08838
   22 H                |   8 C                |     2.05652  |     1.08827
   23 H                |   9 C                |     2.05674  |     1.08838
   24 H                |  10 C                |     2.05660  |     1.08831
   25 H                |  11 C                |     2.06544  |     1.09299
   26 H                |  11 C                |     2.06712  |     1.09388
   27 H                |  11 C                |     2.06835  |     1.09452
 ------------------------------------------------------------------------------
                         number of included internuclear distances:         27
 ==============================================================================



 ==============================================================================
                                 internuclear angles
 ------------------------------------------------------------------------------
        center 1       |       center 2       |       center 3       |  degrees
 ------------------------------------------------------------------------------
    2 N                |   1 C                |  12 H                |   108.49
    2 N                |   1 C                |  13 H                |   108.61
    2 N                |   1 C                |  14 H                |   108.49
   12 H                |   1 C                |  13 H                |   110.31
   12 H                |   1 C                |  14 H                |   110.57
   13 H                |   1 C                |  14 H                |   110.31
    1 C                |   2 N                |   3 C                |   108.75
    1 C                |   2 N                |   4 C                |   108.01
    1 C                |   2 N                |  11 C                |   108.75
    3 C                |   2 N                |   4 C                |   111.07
    3 C                |   2 N                |  11 C                |   109.14
    4 C                |   2 N                |  11 C                |   111.07
    2 N                |   3 C                |  15 H                |   108.35
    2 N                |   3 C                |  16 H                |   109.18
    2 N                |   3 C                |  17 H                |   108.53
   15 H                |   3 C                |  16 H                |   109.53
   15 H                |   3 C                |  17 H                |   110.23
   16 H                |   3 C                |  17 H                |   110.97
    2 N                |   4 C                |   5 C                |   116.68
    2 N                |   4 C                |  18 H                |   106.73
    2 N                |   4 C                |  19 H                |   106.73
    5 C                |   4 C                |  18 H                |   109.73
    5 C                |   4 C                |  19 H                |   109.73
   18 H                |   4 C                |  19 H                |   106.74
    4 C                |   5 C                |   6 C                |   120.66
    4 C                |   5 C                |  10 C                |   120.66
    6 C                |   5 C                |  10 C                |   118.68
    5 C                |   6 C                |   7 C                |   120.57
    5 C                |   6 C                |  20 H                |   121.10
    7 C                |   6 C                |  20 H                |   118.32
    6 C                |   7 C                |   8 C                |   120.09
    6 C                |   7 C                |  21 H                |   120.25
    8 C                |   7 C                |  21 H                |   119.65
    7 C                |   8 C                |   9 C                |   119.99
    7 C                |   8 C                |  22 H                |   120.00
    9 C                |   8 C                |  22 H                |   120.00
    8 C                |   9 C                |  10 C                |   120.09
    8 C                |   9 C                |  23 H                |   119.65
   10 C                |   9 C                |  23 H                |   120.25
    5 C                |  10 C                |   9 C                |   120.57
    5 C                |  10 C                |  24 H                |   121.10
    9 C                |  10 C                |  24 H                |   118.32
    2 N                |  11 C                |  25 H                |   109.18
    2 N                |  11 C                |  26 H                |   108.53
    2 N                |  11 C                |  27 H                |   108.35
   25 H                |  11 C                |  26 H                |   110.97
   25 H                |  11 C                |  27 H                |   109.53
   26 H                |  11 C                |  27 H                |   110.23
 ------------------------------------------------------------------------------
                            number of included internuclear angles:         48
 ==============================================================================



  library name resolved from: .nwchemrc
  library file name is: </usr/local/Cellar/nwchem/7.0.0_2/share/nwchem/libraries/>
  


 Summary of "ao basis" -> "" (cartesian)
 ------------------------------------------------------------------------------
       Tag                 Description            Shells   Functions and Types
 ---------------- ------------------------------  ------  ---------------------
 *                           6-31G*                   on all atoms 




                           NWChem Geometry Optimization
                           ----------------------------




                                 H_ESP_Calculation


  no constraints, skipping    0.0000000000000000     
 maximum gradient threshold         (gmax) =   0.000450
 rms gradient threshold             (grms) =   0.000300
 maximum cartesian step threshold   (xmax) =   0.001800
 rms cartesian step threshold       (xrms) =   0.001200
 fixed trust radius                (trust) =   0.300000
 maximum step size to saddle      (sadstp) =   0.100000
 energy precision                  (eprec) =   5.0D-06
 maximum number of steps          (nptopt) =   20
 initial hessian option           (inhess) =    0
 line search option               (linopt) =    1
 hessian update option            (modupd) =    1
 saddle point option              (modsad) =    0
 initial eigen-mode to follow     (moddir) =    0
 initial variable to follow       (vardir) =    0
 follow first negative mode     (firstneg) =    T
 apply conjugacy                    (opcg) =    F
 source of zmatrix                         =   autoz   


          -------------------
          Energy Minimization
          -------------------


 Names of Z-matrix variables 
    1              2              3              4              5         
    6              7              8              9             10         
   11             12             13             14             15         
   16             17             18             19             20         
   21             22             23             24             25         
   26             27             28             29             30         
   31             32             33             34             35         
   36             37             38             39             40         
   41             42             43             44             45         
   46             47             48             49             50         
   51             52             53             54             55         
   56             57             58             59             60         
   61             62             63             64             65         
   66             67             68             69             70         
   71             72             73             74             75         
   76             77             78             79             80         
   81             82             83             84             85         
   86             87             88             89             90         
   91             92             93             94             95         
   96             97             98             99            100         
  101            102            103            104            105         
  106            107            108            109            110         
  111            112            113            114            115         
  116            117            118            119            120         
  121            122            123            124            125         
  126            127            128            129            130         
  131            132            133            134            135         
  136            137            138            139            140         
  141         

 Variables with the same non-blank name are constrained to be equal


 Using old Hessian from previous optimization

          --------
          Step   0
          --------


                         Geometry "geometry" -> "geometry"
                         ---------------------------------

 Output coordinates in angstroms (scale by  1.889725989 to convert to a.u.)

  No.       Tag          Charge          X              Y              Z
 ---- ---------------- ---------- -------------- -------------- --------------
    1 C                    6.0000    -0.61347319     3.26342214     0.00000000
    2 N                    7.0000     0.07610527     1.90266573     0.00000000
    3 C                    6.0000     0.95194627     1.79823202     1.23981541
    4 C                    6.0000    -1.01761779     0.81346992     0.00000000
    5 C                    6.0000    -0.54661050    -0.61910145     0.00000000
    6 C                    6.0000    -0.32797153    -1.30101158     1.20795579
    7 C                    6.0000     0.11812455    -2.62358045     1.20587313
    8 C                    6.0000     0.34423996    -3.28221032     0.00000000
    9 C                    6.0000     0.11812455    -2.62358045    -1.20587313
   10 C                    6.0000    -0.32797153    -1.30101158    -1.20795579
   11 C                    6.0000     0.95194627     1.79823202    -1.23981541
   12 H                    1.0000    -1.23197809     3.33902890     0.89933890
   13 H                    1.0000     0.15364656     4.04370466     0.00000000
   14 H                    1.0000    -1.23197809     3.33902890    -0.89933890
   15 H                    1.0000     1.63489324     2.65345476     1.25226199
   16 H                    1.0000     1.52849147     0.87075501     1.19509570
   17 H                    1.0000     0.30731223     1.81617440     2.12338103
   18 H                    1.0000    -1.64643449     0.99695334    -0.88105486
   19 H                    1.0000    -1.64643449     0.99695334     0.88105486
   20 H                    1.0000    -0.51202706    -0.81970324     2.16653531
   21 H                    1.0000     0.28161483    -3.14862552     2.14511085
   22 H                    1.0000     0.68544982    -4.31560172     0.00000000
   23 H                    1.0000     0.28161483    -3.14862552    -2.14511085
   24 H                    1.0000    -0.51202706    -0.81970324    -2.16653531
   25 H                    1.0000     1.52849147     0.87075501    -1.19509570
   26 H                    1.0000     0.30731223     1.81617440    -2.12338103
   27 H                    1.0000     1.63489324     2.65345476    -1.25226199

      Atomic Mass 
      ----------- 

      C                 12.000000
      N                 14.003070
      H                  1.007825


 Effective nuclear repulsion energy (a.u.)     622.9578526688

            Nuclear Dipole moment (a.u.) 
            ----------------------------
        X                 Y               Z
 ---------------- ---------------- ----------------
     0.0000000000     0.0000000000     0.0000000000

      Symmetry information
      --------------------

 Group name             Cs        
 Group number              2
 Group order               2
 No. of unique centers    17

      Symmetry unique atoms

     1    2    3    4    5    6    7    8   12   13   15   16   17   18   20
    21   22


                                 NWChem DFT Module
                                 -----------------


                                 H_ESP_Calculation


                      Basis "ao basis" -> "ao basis" (cartesian)
                      -----
  C (Carbon)
  ----------
            Exponent  Coefficients 
       -------------- ---------------------------------------------------------
  1 S  3.04752490E+03  0.001835
  1 S  4.57369510E+02  0.014037
  1 S  1.03948690E+02  0.068843
  1 S  2.92101550E+01  0.232184
  1 S  9.28666300E+00  0.467941
  1 S  3.16392700E+00  0.362312

  2 S  7.86827240E+00 -0.119332
  2 S  1.88128850E+00 -0.160854
  2 S  5.44249300E-01  1.143456

  3 P  7.86827240E+00  0.068999
  3 P  1.88128850E+00  0.316424
  3 P  5.44249300E-01  0.744308

  4 S  1.68714400E-01  1.000000

  5 P  1.68714400E-01  1.000000

  6 D  8.00000000E-01  1.000000

  N (Nitrogen)
  ------------
            Exponent  Coefficients 
       -------------- ---------------------------------------------------------
  1 S  4.17351100E+03  0.001835
  1 S  6.27457900E+02  0.013995
  1 S  1.42902100E+02  0.068587
  1 S  4.02343300E+01  0.232241
  1 S  1.28202100E+01  0.469070
  1 S  4.39043700E+00  0.360455

  2 S  1.16263580E+01 -0.114961
  2 S  2.71628000E+00 -0.169118
  2 S  7.72218000E-01  1.145852

  3 P  1.16263580E+01  0.067580
  3 P  2.71628000E+00  0.323907
  3 P  7.72218000E-01  0.740895

  4 S  2.12031300E-01  1.000000

  5 P  2.12031300E-01  1.000000

  6 D  8.00000000E-01  1.000000

  H (Hydrogen)
  ------------
            Exponent  Coefficients 
       -------------- ---------------------------------------------------------
  1 S  1.87311370E+01  0.033495
  1 S  2.82539370E+00  0.234727
  1 S  6.40121700E-01  0.813757

  2 S  1.61277800E-01  1.000000



 Summary of "ao basis" -> "ao basis" (cartesian)
 ------------------------------------------------------------------------------
       Tag                 Description            Shells   Functions and Types
 ---------------- ------------------------------  ------  ---------------------
 C                           6-31G*                  6       15   3s2p1d
 N                           6-31G*                  6       15   3s2p1d
 H                           6-31G*                  2        2   2s




 Summary of "ao basis" -> "ao basis" (cartesian)
 ------------------------------------------------------------------------------
       Tag                 Description            Shells   Functions and Types
 ---------------- ------------------------------  ------  ---------------------
 C                           6-31G*                  6       15   3s2p1d
 N                           6-31G*                  6       15   3s2p1d
 H                           6-31G*                  2        2   2s


      Symmetry analysis of basis
      --------------------------

        a'        118
        a"         79

  Caching 1-el integrals 

            General Information
            -------------------
          SCF calculation type: DFT
          Wavefunction type:  closed shell.
          No. of atoms     :    27
          No. of electrons :    82
           Alpha electrons :    41
            Beta electrons :    41
          Charge           :     1
          Spin multiplicity:     1
          Use of symmetry is: on ; symmetry adaption is: on 
          Maximum number of iterations: ***
          AO basis - number of functions:   197
                     number of shells:    98
          Convergence on energy requested:  1.00D-06
          Convergence on density requested:  1.00D-05
          Convergence on gradient requested:  5.00D-04

              XC Information
              --------------
                         B3LYP Method XC Potential
                     Hartree-Fock (Exact) Exchange  0.200          
                        Slater Exchange Functional  0.800 local    
                    Becke 1988 Exchange Functional  0.720 non-local
              Lee-Yang-Parr Correlation Functional  0.810          
                  VWN I RPA Correlation Functional  0.190 local    

             Grid Information
             ----------------
          Grid used for XC integration:  medium    
          Radial quadrature: Mura-Knowles        
          Angular quadrature: Lebedev. 
          Tag              B.-S. Rad. Rad. Pts. Rad. Cut. Ang. Pts.
          ---              ---------- --------- --------- ---------
          C                   0.70       49          14.0       434
          N                   0.65       49          14.0       434
          H                   0.35       45          14.0       434
          Grid pruning is: on 
          Number of quadrature shells:   797
          Spatial weights used:  Erf1

          Convergence Information
          -----------------------
          Convergence aids based upon iterative change in 
          total energy or number of iterations. 
          Levelshifting, if invoked, occurs when the 
          HOMO/LUMO gap drops below (HL_TOL):  1.00D-02
          DIIS, if invoked, will attempt to extrapolate 
          using up to (NFOCK): 10 stored Fock matrices.

                    Damping( 0%)  Levelshifting(0.5)       DIIS
                  --------------- ------------------- ---------------
          dE  on:    start            ASAP                start   
          dE off:    2 iters        *** iters           *** iters 


      Screening Tolerance Information
      -------------------------------
          Density screening/tol_rho:  1.00D-10
          AO Gaussian exp screening on grid/accAOfunc:  14
          CD Gaussian exp screening on grid/accCDfunc:  20
          XC Gaussian exp screening on grid/accXCfunc:  20
          Schwarz screening/accCoul:  1.00D-08


      Superposition of Atomic Density Guess
      -------------------------------------

 Sum of atomic energies:        -438.86800036

 Renormalizing density from      83.00 to     82

      Non-variational initial energy
      ------------------------------

 Total energy =    -442.797960
 1-e energy   =   -1803.841190
 2-e energy   =     738.085377
 HOMO         =      -0.494198
 LUMO         =      -0.216158


      Symmetry analysis of molecular orbitals - initial
      -------------------------------------------------

  Numbering of irreducible representations: 

     1 a'          2 a"      

  Orbital symmetries:

     1 a'          2 a'          3 a'          4 a'          5 a"      
     6 a'          7 a'          8 a"          9 a"         10 a'      
    11 a'         12 a'         13 a'         14 a'         15 a"      
    16 a"         17 a'         18 a'         19 a'         20 a"      
    21 a'         22 a'         23 a'         24 a"         25 a'      
    26 a'         27 a"         28 a"         29 a'         30 a"      
    31 a'         32 a'         33 a"         34 a'         35 a"      
    36 a'         37 a"         38 a'         39 a"         40 a"      
    41 a'         42 a'         43 a"         44 a'         45 a'      
    46 a'         47 a'         48 a"         49 a'         50 a"      
    51 a'      

   Time after variat. SCF:      3.3
   Time prior to 1st pass:      3.3

 Integral file          = ./H.aoints.0
 Record size in doubles =  65536        No. of integs per rec  =  43688
 Max. records in memory =      0        Max. records in file   = 184996
 No. of bits per label  =      8        No. of bits per value  =     64


 #quartets = 3.636D+06 #integrals = 5.359D+07 #direct =  0.0% #cached =100.0%


 Grid_pts file          = ./H.gridpts.0
 Record size in doubles =  12289        No. of grid_pts per rec  =   3070
 Max. records in memory =    125        Max. recs in file   =    977625


           Memory utilization after 1st SCF pass: 
           Heap Space remaining (MW):       11.55            11553164
          Stack Space remaining (MW):       13.11            13105204

   convergence    iter        energy       DeltaE   RMS-Dens  Diis-err    time
 ---------------- ----- ----------------- --------- --------- ---------  ------
 d= 0,ls=0.0,diis     1   -445.0874743834 -1.07D+03  7.48D-03  1.47D+00    20.5
 d= 0,ls=0.0,diis     2   -445.1660931742 -7.86D-02  4.75D-03  4.53D-01    26.8
 d= 0,ls=0.0,diis     3   -445.1922528204 -2.62D-02  1.73D-03  2.47D-01    32.9
 d= 0,ls=0.0,diis     4   -445.2187937522 -2.65D-02  3.95D-04  1.05D-02    40.9
 d= 0,ls=0.0,diis     5   -445.2199771770 -1.18D-03  5.95D-05  1.61D-04    48.5
  Resetting Diis
 d= 0,ls=0.0,diis     6   -445.2199925263 -1.53D-05  2.94D-05  3.04D-05    55.4
 d= 0,ls=0.0,diis     7   -445.2199957744 -3.25D-06  2.77D-05  5.81D-06    63.3
 d= 0,ls=0.0,diis     8   -445.2199934846  2.29D-06  1.89D-05  2.16D-05    70.8
 d= 0,ls=0.0,diis     9   -445.2199965932 -3.11D-06  1.17D-06  8.72D-08    78.8
 d= 0,ls=0.0,diis    10   -445.2199966042 -1.10D-08  2.26D-07  3.96D-09    86.5


         Total DFT energy =     -445.219996604189
      One electron energy =    -1821.166524431570
           Coulomb energy =      819.815117753739
    Exchange-Corr. energy =      -66.826442595161
 Nuclear repulsion energy =      622.957852668802

 Numeric. integr. density =       82.000040248522

     Total iterative time =     83.2s



                  Occupations of the irreducible representations
                  ----------------------------------------------

                     irrep           alpha         beta
                     --------     --------     --------
                     a'               26.0         26.0
                     a"               15.0         15.0


                       DFT Final Molecular Orbital Analysis
                       ------------------------------------

 Vector    1  Occ=2.000000D+00  E=-1.462803D+01  Symmetry=a'
              MO Center=  7.6D-02,  1.9D+00,  1.3D-18, r^2= 2.0D-02
   Bfn.  Coefficient  Atom+Function         Bfn.  Coefficient  Atom+Function  
  ----- ------------  ---------------      ----- ------------  ---------------
    16      0.992730   2 N  s                17      0.034553   2 N  s         

 Vector    2  Occ=2.000000D+00  E=-1.040176D+01  Symmetry=a'
              MO Center= -6.1D-01,  3.3D+00,  2.1D-21, r^2= 2.8D-02
   Bfn.  Coefficient  Atom+Function         Bfn.  Coefficient  Atom+Function  
  ----- ------------  ---------------      ----- ------------  ---------------
     1      0.992945   1 C  s                 2      0.049967   1 C  s         

 Vector    3  Occ=2.000000D+00  E=-1.040136D+01  Symmetry=a'
              MO Center= -1.0D+00,  8.1D-01,  1.9D-15, r^2= 2.8D-02
   Bfn.  Coefficient  Atom+Function         Bfn.  Coefficient  Atom+Function  
  ----- ------------  ---------------      ----- ------------  ---------------
    46      0.993084   4 C  s                47      0.050210   4 C  s         

 Vector    4  Occ=2.000000D+00  E=-1.039808D+01  Symmetry=a"
              MO Center=  9.5D-01,  1.8D+00, -2.4D-15, r^2= 1.6D+00
   Bfn.  Coefficient  Atom+Function         Bfn.  Coefficient  Atom+Function  
  ----- ------------  ---------------      ----- ------------  ---------------
    31      0.702178   3 C  s               151     -0.702178  11 C  s         
    32      0.035548   3 C  s               152     -0.035548  11 C  s         

 Vector    5  Occ=2.000000D+00  E=-1.039807D+01  Symmetry=a'
              MO Center=  9.5D-01,  1.8D+00,  1.9D-16, r^2= 1.6D+00
   Bfn.  Coefficient  Atom+Function         Bfn.  Coefficient  Atom+Function  
  ----- ------------  ---------------      ----- ------------  ---------------
    31      0.702071   3 C  s               151      0.702071  11 C  s         
    32      0.035018   3 C  s               152      0.035018  11 C  s         

 Vector    6  Occ=2.000000D+00  E=-1.034068D+01  Symmetry=a'
              MO Center= -5.5D-01, -6.2D-01,  3.8D-16, r^2= 2.9D-02
   Bfn.  Coefficient  Atom+Function         Bfn.  Coefficient  Atom+Function  
  ----- ------------  ---------------      ----- ------------  ---------------
    61      0.992603   5 C  s                62      0.049799   5 C  s         

 Vector    7  Occ=2.000000D+00  E=-1.032538D+01  Symmetry=a"
              MO Center= -3.3D-01, -1.3D+00, -3.7D-10, r^2= 1.5D+00
   Bfn.  Coefficient  Atom+Function         Bfn.  Coefficient  Atom+Function  
  ----- ------------  ---------------      ----- ------------  ---------------
    76      0.701785   6 C  s               136     -0.701785  10 C  s         
    77      0.035207   6 C  s               137     -0.035207  10 C  s         

 Vector    8  Occ=2.000000D+00  E=-1.032537D+01  Symmetry=a'
              MO Center= -3.3D-01, -1.3D+00,  3.7D-10, r^2= 1.5D+00
   Bfn.  Coefficient  Atom+Function         Bfn.  Coefficient  Atom+Function  
  ----- ------------  ---------------      ----- ------------  ---------------
    76      0.701637   6 C  s               136      0.701637  10 C  s         
    77      0.035320   6 C  s               137      0.035320  10 C  s         

 Vector    9  Occ=2.000000D+00  E=-1.031491D+01  Symmetry=a'
              MO Center=  1.5D-01, -2.7D+00, -5.0D-11, r^2= 1.3D+00
   Bfn.  Coefficient  Atom+Function         Bfn.  Coefficient  Atom+Function  
  ----- ------------  ---------------      ----- ------------  ---------------
    91      0.654632   7 C  s               121      0.654632   9 C  s         
   106      0.357276   8 C  s                92      0.032704   7 C  s         
   122      0.032704   9 C  s         

 Vector   10  Occ=2.000000D+00  E=-1.031476D+01  Symmetry=a"
              MO Center=  1.2D-01, -2.6D+00,  4.8D-11, r^2= 1.5D+00
   Bfn.  Coefficient  Atom+Function         Bfn.  Coefficient  Atom+Function  
  ----- ------------  ---------------      ----- ------------  ---------------
    91      0.701769   7 C  s               121     -0.701769   9 C  s         
    92      0.035149   7 C  s               122     -0.035149   9 C  s         

 Vector   11  Occ=2.000000D+00  E=-1.031373D+01  Symmetry=a'
              MO Center=  3.1D-01, -3.2D+00,  1.9D-12, r^2= 2.7D-01
   Bfn.  Coefficient  Atom+Function         Bfn.  Coefficient  Atom+Function  
  ----- ------------  ---------------      ----- ------------  ---------------
   106      0.926303   8 C  s                91     -0.253025   7 C  s         
   121     -0.253025   9 C  s               107      0.046814   8 C  s         

 Vector   12  Occ=2.000000D+00  E=-1.167655D+00  Symmetry=a'
              MO Center=  7.7D-02,  1.9D+00, -3.0D-16, r^2= 1.1D+00
   Bfn.  Coefficient  Atom+Function         Bfn.  Coefficient  Atom+Function  
  ----- ------------  ---------------      ----- ------------  ---------------
    21      0.422198   2 N  s                17      0.377967   2 N  s         
    16     -0.182778   2 N  s                 2      0.112093   1 C  s         
    32      0.110348   3 C  s               152      0.110348  11 C  s         
    47      0.107771   4 C  s                 4     -0.063808   1 C  py        
     1     -0.059836   1 C  s                31     -0.058985   3 C  s         

 Vector   13  Occ=2.000000D+00  E=-9.900677D-01  Symmetry=a'
              MO Center= -2.6D-01, -1.3D+00,  5.6D-15, r^2= 2.8D+00
   Bfn.  Coefficient  Atom+Function         Bfn.  Coefficient  Atom+Function  
  ----- ------------  ---------------      ----- ------------  ---------------
    62      0.228300   5 C  s                77      0.178630   6 C  s         
   137      0.178630  10 C  s                92      0.145461   7 C  s         
   122      0.145461   9 C  s               107      0.136467   8 C  s         
    66      0.129912   5 C  s                61     -0.118218   5 C  s         
    81      0.115087   6 C  s               141      0.115087  10 C  s         

 Vector   14  Occ=2.000000D+00  E=-9.243778D-01  Symmetry=a'
              MO Center= -3.2D-01, -3.8D-01,  1.1D-14, r^2= 5.5D+00
   Bfn.  Coefficient  Atom+Function         Bfn.  Coefficient  Atom+Function  
  ----- ------------  ---------------      ----- ------------  ---------------
    47      0.260607   4 C  s                51      0.225111   4 C  s         
   107     -0.177877   8 C  s                92     -0.139426   7 C  s         
   122     -0.139426   9 C  s                46     -0.133300   4 C  s         
    62      0.132713   5 C  s               111     -0.120430   8 C  s         
    19     -0.112444   2 N  py               18     -0.103774   2 N  px        

 Vector   15  Occ=2.000000D+00  E=-9.059219D-01  Symmetry=a'
              MO Center= -1.4D-02,  2.5D+00, -5.8D-17, r^2= 2.8D+00
   Bfn.  Coefficient  Atom+Function         Bfn.  Coefficient  Atom+Function  
  ----- ------------  ---------------      ----- ------------  ---------------
     2      0.298338   1 C  s                 6      0.273922   1 C  s         
    18     -0.179919   2 N  px               32     -0.162388   3 C  s         
   152     -0.162388  11 C  s                 1     -0.152684   1 C  s         
    36     -0.148080   3 C  s               156     -0.148080  11 C  s         
    19      0.137489   2 N  py              166      0.101317  12 H  s         

 Vector   16  Occ=2.000000D+00  E=-9.051567D-01  Symmetry=a"
              MO Center=  7.2D-01,  1.8D+00, -6.7D-15, r^2= 2.7D+00
   Bfn.  Coefficient  Atom+Function         Bfn.  Coefficient  Atom+Function  
  ----- ------------  ---------------      ----- ------------  ---------------
    32      0.265785   3 C  s               152     -0.265785  11 C  s         
    36      0.241900   3 C  s               156     -0.241900  11 C  s         
    20      0.227328   2 N  pz               31     -0.136173   3 C  s         
   151      0.136173  11 C  s                24      0.112085   2 N  pz        
   176      0.096488  17 H  s               194     -0.096488  26 H  s         

 Vector   17  Occ=2.000000D+00  E=-8.731533D-01  Symmetry=a"
              MO Center= -1.2D-01, -1.8D+00, -2.7D-15, r^2= 3.1D+00
   Bfn.  Coefficient  Atom+Function         Bfn.  Coefficient  Atom+Function  
  ----- ------------  ---------------      ----- ------------  ---------------
    77      0.230148   6 C  s               137     -0.230148  10 C  s         
    92      0.213516   7 C  s               122     -0.213516   9 C  s         
    81      0.174627   6 C  s               141     -0.174627  10 C  s         
    96      0.161864   7 C  s               126     -0.161864   9 C  s         
    65      0.125658   5 C  pz               76     -0.116504   6 C  s         

 Vector   18  Occ=2.000000D+00  E=-8.543157D-01  Symmetry=a'
              MO Center= -1.2D-01, -3.2D-01,  1.7D-15, r^2= 7.2D+00
   Bfn.  Coefficient  Atom+Function         Bfn.  Coefficient  Atom+Function  
  ----- ------------  ---------------      ----- ------------  ---------------
   107      0.208617   8 C  s                62     -0.172505   5 C  s         
   111      0.155208   8 C  s                 6     -0.148400   1 C  s         
    66     -0.142322   5 C  s                 2     -0.139907   1 C  s         
    47      0.136570   4 C  s                19     -0.124023   2 N  py        
    21      0.124569   2 N  s                51      0.123936   4 C  s         

 Vector   19  Occ=2.000000D+00  E=-7.885463D-01  Symmetry=a'
              MO Center=  8.0D-02,  1.2D+00, -7.6D-16, r^2= 6.4D+00
   Bfn.  Coefficient  Atom+Function         Bfn.  Coefficient  Atom+Function  
  ----- ------------  ---------------      ----- ------------  ---------------
    21      0.340185   2 N  s                17      0.212416   2 N  s         
    51     -0.177322   4 C  s                36     -0.172458   3 C  s         
   156     -0.172458  11 C  s                 6     -0.147737   1 C  s         
    47     -0.146239   4 C  s                32     -0.137110   3 C  s         
   152     -0.137110  11 C  s               107     -0.118353   8 C  s         

 Vector   20  Occ=2.000000D+00  E=-7.360014D-01  Symmetry=a"
              MO Center= -1.4D-01, -1.8D+00, -2.2D-15, r^2= 4.1D+00
   Bfn.  Coefficient  Atom+Function         Bfn.  Coefficient  Atom+Function  
  ----- ------------  ---------------      ----- ------------  ---------------
    65      0.217028   5 C  pz              110     -0.196974   8 C  pz        
    92     -0.193221   7 C  s               122      0.193221   9 C  s         
    77      0.157050   6 C  s               137     -0.157050  10 C  s         
    96     -0.143014   7 C  s               126      0.143014   9 C  s         
    81      0.133409   6 C  s               141     -0.133409  10 C  s         

 Vector   21  Occ=2.000000D+00  E=-7.244609D-01  Symmetry=a'
              MO Center= -8.8D-02, -9.5D-01, -2.9D-15, r^2= 6.1D+00
   Bfn.  Coefficient  Atom+Function         Bfn.  Coefficient  Atom+Function  
  ----- ------------  ---------------      ----- ------------  ---------------
    62      0.195663   5 C  s               107      0.175838   8 C  s         
    66      0.163036   5 C  s                49     -0.151997   4 C  py        
    18      0.140706   2 N  px              111      0.131322   8 C  s         
    80     -0.127033   6 C  pz              140      0.127033  10 C  pz        
    79      0.108444   6 C  py               95     -0.108898   7 C  pz        

 Vector   22  Occ=2.000000D+00  E=-6.812606D-01  Symmetry=a'
              MO Center= -1.5D-01,  1.7D+00, -4.0D-16, r^2= 3.8D+00
   Bfn.  Coefficient  Atom+Function         Bfn.  Coefficient  Atom+Function  
  ----- ------------  ---------------      ----- ------------  ---------------
    19      0.298625   2 N  py               48     -0.208480   4 C  px        
    23      0.195072   2 N  py                3      0.179901   1 C  px        
    34      0.173275   3 C  py              154      0.173275  11 C  py        
    51      0.157475   4 C  s                 6     -0.132130   1 C  s         
     4     -0.108415   1 C  py              166     -0.091760  12 H  s         

 Vector   23  Occ=2.000000D+00  E=-6.777853D-01  Symmetry=a"
              MO Center=  3.0D-01,  1.8D+00, -2.2D-15, r^2= 3.8D+00
   Bfn.  Coefficient  Atom+Function         Bfn.  Coefficient  Atom+Function  
  ----- ------------  ---------------      ----- ------------  ---------------
    20      0.312914   2 N  pz               24      0.198835   2 N  pz        
    33     -0.194193   3 C  px              153      0.194193  11 C  px        
     5      0.191662   1 C  pz               50      0.160446   4 C  pz        
    36     -0.138916   3 C  s               156      0.138916  11 C  s         
   174     -0.098322  16 H  s               192      0.098322  25 H  s         

 Vector   24  Occ=2.000000D+00  E=-6.702929D-01  Symmetry=a'
              MO Center=  6.7D-02,  9.4D-01, -6.4D-16, r^2= 6.7D+00
   Bfn.  Coefficient  Atom+Function         Bfn.  Coefficient  Atom+Function  
  ----- ------------  ---------------      ----- ------------  ---------------
    18      0.255272   2 N  px                4      0.191971   1 C  py        
    35     -0.172165   3 C  pz              155      0.172165  11 C  pz        
    22      0.162759   2 N  px               64      0.147118   5 C  py        
    80      0.124748   6 C  pz              140     -0.124748  10 C  pz        
    49     -0.117384   4 C  py               19     -0.110891   2 N  py        

 Vector   25  Occ=2.000000D+00  E=-6.371216D-01  Symmetry=a'
              MO Center= -4.5D-02, -1.1D+00,  4.4D-15, r^2= 7.0D+00
   Bfn.  Coefficient  Atom+Function         Bfn.  Coefficient  Atom+Function  
  ----- ------------  ---------------      ----- ------------  ---------------
   109      0.194966   8 C  py               80     -0.134341   6 C  pz        
   140      0.134341  10 C  pz              186     -0.130866  22 H  s         
    79     -0.126087   6 C  py              139     -0.126087  10 C  py        
    48     -0.114454   4 C  px              182     -0.111418  20 H  s         
   190     -0.111418  24 H  s                95     -0.108072   7 C  pz        

 Vector   26  Occ=2.000000D+00  E=-6.095439D-01  Symmetry=a"
              MO Center= -1.5D-01,  7.8D-01,  6.6D-15, r^2= 7.0D+00
   Bfn.  Coefficient  Atom+Function         Bfn.  Coefficient  Atom+Function  
  ----- ------------  ---------------      ----- ------------  ---------------
    50     -0.234409   4 C  pz                5      0.216906   1 C  pz        
    34      0.176639   3 C  py              154     -0.176639  11 C  py        
   110     -0.142615   8 C  pz               54     -0.141036   4 C  pz        
    94      0.133360   7 C  py              124     -0.133360   9 C  py        
     9      0.115772   1 C  pz               65     -0.111567   5 C  pz        

 Vector   27  Occ=2.000000D+00  E=-6.017540D-01  Symmetry=a'
              MO Center=  1.0D-01,  1.3D+00, -1.1D-14, r^2= 7.8D+00
   Bfn.  Coefficient  Atom+Function         Bfn.  Coefficient  Atom+Function  
  ----- ------------  ---------------      ----- ------------  ---------------
     3      0.208167   1 C  px                4      0.182728   1 C  py        
   168      0.167719  13 H  s                33     -0.163071   3 C  px        
   153     -0.163071  11 C  px               48      0.115983   4 C  px        
     7      0.113598   1 C  px              109      0.113601   8 C  py        
   169      0.109531  13 H  s               176      0.107782  17 H  s         

 Vector   28  Occ=2.000000D+00  E=-5.835247D-01  Symmetry=a"
              MO Center=  2.9D-01,  7.4D-01, -3.1D-15, r^2= 7.1D+00
   Bfn.  Coefficient  Atom+Function         Bfn.  Coefficient  Atom+Function  
  ----- ------------  ---------------      ----- ------------  ---------------
    65      0.179610   5 C  pz               34      0.174155   3 C  py        
   154     -0.174155  11 C  py               33      0.156171   3 C  px        
   153     -0.156171  11 C  px              110      0.154260   8 C  pz        
     5      0.148602   1 C  pz               20     -0.144990   2 N  pz        
   172      0.142183  15 H  s               196     -0.142183  27 H  s         

 Vector   29  Occ=2.000000D+00  E=-5.816248D-01  Symmetry=a'
              MO Center= -1.2D-01, -6.0D-01, -2.2D-15, r^2= 9.5D+00
   Bfn.  Coefficient  Atom+Function         Bfn.  Coefficient  Atom+Function  
  ----- ------------  ---------------      ----- ------------  ---------------
    66      0.203038   5 C  s                95      0.159296   7 C  pz        
   125     -0.159296   9 C  pz                4     -0.149401   1 C  py        
     3     -0.148519   1 C  px              184      0.145502  21 H  s         
   188      0.145502  23 H  s               111     -0.136655   8 C  s         
   168     -0.129484  13 H  s                62      0.124748   5 C  s         

 Vector   30  Occ=2.000000D+00  E=-5.665939D-01  Symmetry=a'
              MO Center=  9.1D-02,  2.1D+00, -1.1D-13, r^2= 3.8D+00
   Bfn.  Coefficient  Atom+Function         Bfn.  Coefficient  Atom+Function  
  ----- ------------  ---------------      ----- ------------  ---------------
    18      0.308505   2 N  px                3     -0.253128   1 C  px        
    33     -0.210537   3 C  px              153     -0.210537  11 C  px        
    48     -0.170543   4 C  px               22      0.167240   2 N  px        
   168     -0.143772  13 H  s                 7     -0.122449   1 C  px        
    49     -0.119686   4 C  py              169     -0.115711  13 H  s         

 Vector   31  Occ=2.000000D+00  E=-5.660012D-01  Symmetry=a"
              MO Center=  3.9D-01,  2.1D+00,  1.4D-14, r^2= 4.0D+00
   Bfn.  Coefficient  Atom+Function         Bfn.  Coefficient  Atom+Function  
  ----- ------------  ---------------      ----- ------------  ---------------
     5      0.281673   1 C  pz               34     -0.217620   3 C  py        
   154      0.217620  11 C  py              174      0.166615  16 H  s         
   192     -0.166615  25 H  s               166      0.148759  12 H  s         
   170     -0.148759  14 H  s                33      0.145830   3 C  px        
   153     -0.145830  11 C  px                9      0.136283   1 C  pz        

 Vector   32  Occ=2.000000D+00  E=-5.641210D-01  Symmetry=a"
              MO Center=  3.3D-01,  2.0D+00,  1.0D-13, r^2= 4.1D+00
   Bfn.  Coefficient  Atom+Function         Bfn.  Coefficient  Atom+Function  
  ----- ------------  ---------------      ----- ------------  ---------------
    35     -0.272023   3 C  pz              155     -0.272023  11 C  pz        
    20      0.267927   2 N  pz                5     -0.183519   1 C  pz        
   176     -0.175316  17 H  s               194      0.175316  26 H  s         
    24      0.151036   2 N  pz              177     -0.149338  17 H  s         
   195      0.149338  26 H  s                39     -0.119735   3 C  pz        

 Vector   33  Occ=2.000000D+00  E=-5.596723D-01  Symmetry=a'
              MO Center=  6.5D-01,  1.7D+00,  7.4D-15, r^2= 4.3D+00
   Bfn.  Coefficient  Atom+Function         Bfn.  Coefficient  Atom+Function  
  ----- ------------  ---------------      ----- ------------  ---------------
    34     -0.257511   3 C  py              154     -0.257511  11 C  py        
    19      0.252855   2 N  py                3      0.181870   1 C  px        
    48     -0.155516   4 C  px              174      0.145826  16 H  s         
   192      0.145826  25 H  s               172     -0.143915  15 H  s         
   196     -0.143915  27 H  s                23      0.137064   2 N  py        

 Vector   34  Occ=2.000000D+00  E=-5.484580D-01  Symmetry=a"
              MO Center= -1.9D-01, -1.4D+00,  2.7D-15, r^2= 5.1D+00
   Bfn.  Coefficient  Atom+Function         Bfn.  Coefficient  Atom+Function  
  ----- ------------  ---------------      ----- ------------  ---------------
    80      0.236287   6 C  pz              140      0.236287  10 C  pz        
    95      0.216259   7 C  pz              125      0.216259   9 C  pz        
    65     -0.178251   5 C  pz               50      0.138628   4 C  pz        
   110     -0.138777   8 C  pz              182      0.125639  20 H  s         
   190     -0.125639  24 H  s               184      0.123584  21 H  s         

 Vector   35  Occ=2.000000D+00  E=-5.427041D-01  Symmetry=a'
              MO Center= -1.9D-01, -1.2D+00,  2.9D-15, r^2= 6.4D+00
   Bfn.  Coefficient  Atom+Function         Bfn.  Coefficient  Atom+Function  
  ----- ------------  ---------------      ----- ------------  ---------------
    64      0.287599   5 C  py              109      0.268572   8 C  py        
    49     -0.222878   4 C  py               95     -0.153392   7 C  pz        
   125      0.153392   9 C  pz              186     -0.150814  22 H  s         
    80      0.144840   6 C  pz              140     -0.144840  10 C  pz        
     4     -0.141953   1 C  py               48      0.134944   4 C  px        

 Vector   36  Occ=2.000000D+00  E=-5.385477D-01  Symmetry=a"
              MO Center= -5.6D-01, -4.4D-01, -4.3D-15, r^2= 5.0D+00
   Bfn.  Coefficient  Atom+Function         Bfn.  Coefficient  Atom+Function  
  ----- ------------  ---------------      ----- ------------  ---------------
    50      0.302348   4 C  pz               79     -0.214789   6 C  py        
   139      0.214789  10 C  py               94      0.195398   7 C  py        
   124     -0.195398   9 C  py              178     -0.167400  18 H  s         
   180      0.167400  19 H  s               179     -0.140924  18 H  s         
   181      0.140924  19 H  s                54      0.138155   4 C  pz        

 Vector   37  Occ=2.000000D+00  E=-4.916510D-01  Symmetry=a'
              MO Center= -1.3D-01, -1.7D+00, -1.6D-15, r^2= 3.3D+00
   Bfn.  Coefficient  Atom+Function         Bfn.  Coefficient  Atom+Function  
  ----- ------------  ---------------      ----- ------------  ---------------
    63      0.223267   5 C  px               78      0.222889   6 C  px        
   138      0.222889  10 C  px              108      0.206957   8 C  px        
    93      0.185551   7 C  px              123      0.185551   9 C  px        
    67      0.130620   5 C  px               82      0.128913   6 C  px        
   142      0.128913  10 C  px              112      0.111161   8 C  px        

 Vector   38  Occ=2.000000D+00  E=-4.737536D-01  Symmetry=a'
              MO Center= -1.9D-02, -2.1D+00,  1.1D-14, r^2= 4.6D+00
   Bfn.  Coefficient  Atom+Function         Bfn.  Coefficient  Atom+Function  
  ----- ------------  ---------------      ----- ------------  ---------------
   109      0.260156   8 C  py               79      0.241456   6 C  py        
   139      0.241456  10 C  py               94     -0.228884   7 C  py        
   124     -0.228884   9 C  py              186     -0.192378  22 H  s         
   187     -0.187358  22 H  s                49      0.180089   4 C  py        
    64     -0.160571   5 C  py               51     -0.132439   4 C  s         

 Vector   39  Occ=2.000000D+00  E=-4.696341D-01  Symmetry=a"
              MO Center= -7.9D-02, -2.1D+00, -1.7D-14, r^2= 4.3D+00
   Bfn.  Coefficient  Atom+Function         Bfn.  Coefficient  Atom+Function  
  ----- ------------  ---------------      ----- ------------  ---------------
   110     -0.277013   8 C  pz               95      0.259039   7 C  pz        
   125      0.259039   9 C  pz               65      0.253230   5 C  pz        
    80     -0.209072   6 C  pz              140     -0.209072  10 C  pz        
   185      0.161416  21 H  s               189     -0.161416  23 H  s         
   184      0.158719  21 H  s               188     -0.158719  23 H  s         

 Vector   40  Occ=2.000000D+00  E=-3.824758D-01  Symmetry=a'
              MO Center= -8.4D-02, -1.9D+00, -2.6D-15, r^2= 3.5D+00
   Bfn.  Coefficient  Atom+Function         Bfn.  Coefficient  Atom+Function  
  ----- ------------  ---------------      ----- ------------  ---------------
    63      0.327499   5 C  px              108     -0.323470   8 C  px        
   112     -0.218627   8 C  px               67      0.211371   5 C  px        
    93     -0.178001   7 C  px              123     -0.178001   9 C  px        
    21     -0.168218   2 N  s                78      0.129553   6 C  px        
   138      0.129553  10 C  px               97     -0.124901   7 C  px        

 Vector   41  Occ=2.000000D+00  E=-3.786073D-01  Symmetry=a"
              MO Center= -1.1D-01, -1.9D+00,  3.7D-15, r^2= 3.0D+00
   Bfn.  Coefficient  Atom+Function         Bfn.  Coefficient  Atom+Function  
  ----- ------------  ---------------      ----- ------------  ---------------
    78      0.288936   6 C  px              138     -0.288936  10 C  px        
    93      0.270856   7 C  px              123     -0.270856   9 C  px        
    82      0.209407   6 C  px              142     -0.209407  10 C  px        
    97      0.185188   7 C  px              127     -0.185188   9 C  px        
    79      0.097332   6 C  py              139     -0.097332  10 C  py        

 Vector   42  Occ=0.000000D+00  E=-1.519619D-01  Symmetry=a'
              MO Center= -2.3D-01, -9.8D-01, -2.3D-15, r^2= 5.7D+00
   Bfn.  Coefficient  Atom+Function         Bfn.  Coefficient  Atom+Function  
  ----- ------------  ---------------      ----- ------------  ---------------
    21      0.720549   2 N  s               112     -0.347012   8 C  px        
   108     -0.297168   8 C  px               52     -0.295077   4 C  px        
    67     -0.294073   5 C  px               63     -0.285284   5 C  px        
    82      0.233615   6 C  px              142      0.233615  10 C  px        
    78      0.204754   6 C  px              138      0.204754  10 C  px        

 Vector   43  Occ=0.000000D+00  E=-1.309361D-01  Symmetry=a"
              MO Center= -7.2D-02, -1.9D+00,  5.4D-15, r^2= 3.8D+00
   Bfn.  Coefficient  Atom+Function         Bfn.  Coefficient  Atom+Function  
  ----- ------------  ---------------      ----- ------------  ---------------
    97     -0.392142   7 C  px              127      0.392142   9 C  px        
    82      0.370878   6 C  px              142     -0.370878  10 C  px        
    93     -0.309240   7 C  px              123      0.309240   9 C  px        
    78      0.280215   6 C  px              138     -0.280215  10 C  px        
    54      0.144133   4 C  pz              179      0.142338  18 H  s         

 Vector   44  Occ=0.000000D+00  E=-1.010720D-01  Symmetry=a'
              MO Center=  1.4D-01,  1.8D+00, -6.1D-16, r^2= 7.4D+00
   Bfn.  Coefficient  Atom+Function         Bfn.  Coefficient  Atom+Function  
  ----- ------------  ---------------      ----- ------------  ---------------
    21      0.709859   2 N  s                51      0.666531   4 C  s         
     6      0.650324   1 C  s                36      0.604304   3 C  s         
   156      0.604304  11 C  s               169     -0.477333  13 H  s         
   173     -0.475415  15 H  s               197     -0.475415  27 H  s         
     8      0.469907   1 C  py              177     -0.428259  17 H  s         

 Vector   45  Occ=0.000000D+00  E=-6.320957D-02  Symmetry=a'
              MO Center=  5.5D-02,  1.5D+00, -4.8D-15, r^2= 6.9D+00
   Bfn.  Coefficient  Atom+Function         Bfn.  Coefficient  Atom+Function  
  ----- ------------  ---------------      ----- ------------  ---------------
    21      1.281187   2 N  s                36     -0.813693   3 C  s         
   156     -0.813693  11 C  s               177      0.627754  17 H  s         
   195      0.627754  26 H  s                37      0.535556   3 C  px        
   157      0.535556  11 C  px              183      0.500908  20 H  s         
   191      0.500908  24 H  s                66     -0.418921   5 C  s         

 Vector   46  Occ=0.000000D+00  E=-5.616584D-02  Symmetry=a"
              MO Center= -5.1D-01,  1.8D+00, -9.5D-14, r^2= 5.7D+00
   Bfn.  Coefficient  Atom+Function         Bfn.  Coefficient  Atom+Function  
  ----- ------------  ---------------      ----- ------------  ---------------
   179     -0.702129  18 H  s               181      0.702129  19 H  s         
   167      0.653034  12 H  s               171     -0.653034  14 H  s         
    54     -0.599471   4 C  pz                9     -0.558466   1 C  pz        
    39     -0.559334   3 C  pz              159     -0.559334  11 C  pz        
   177      0.504213  17 H  s               195     -0.504213  26 H  s         

 Vector   47  Occ=0.000000D+00  E=-5.018180D-02  Symmetry=a'
              MO Center=  5.8D-01,  1.9D+00,  1.3D-13, r^2= 6.8D+00
   Bfn.  Coefficient  Atom+Function         Bfn.  Coefficient  Atom+Function  
  ----- ------------  ---------------      ----- ------------  ---------------
    21      1.138582   2 N  s               173      0.817798  15 H  s         
   197      0.817798  27 H  s               169      0.656341  13 H  s         
    51     -0.620167   4 C  s                36     -0.590808   3 C  s         
   156     -0.590808  11 C  s                38     -0.422339   3 C  py        
   158     -0.422339  11 C  py                7     -0.414505   1 C  px        

 Vector   48  Occ=0.000000D+00  E=-4.769666D-02  Symmetry=a'
              MO Center=  9.7D-02,  1.9D+00, -3.3D-15, r^2= 7.2D+00
   Bfn.  Coefficient  Atom+Function         Bfn.  Coefficient  Atom+Function  
  ----- ------------  ---------------      ----- ------------  ---------------
     6      1.639549   1 C  s                21     -0.909114   2 N  s         
   175     -0.755502  16 H  s               193     -0.755502  25 H  s         
   167     -0.538230  12 H  s               171     -0.538230  14 H  s         
     8     -0.492860   1 C  py               36      0.474947   3 C  s         
   156      0.474947  11 C  s               169     -0.432044  13 H  s         

 Vector   49  Occ=0.000000D+00  E=-2.272496D-02  Symmetry=a"
              MO Center=  5.1D-01,  1.3D+00, -3.6D-14, r^2= 7.1D+00
   Bfn.  Coefficient  Atom+Function         Bfn.  Coefficient  Atom+Function  
  ----- ------------  ---------------      ----- ------------  ---------------
    36      1.612806   3 C  s               156     -1.612806  11 C  s         
    24     -0.818268   2 N  pz              177     -0.709736  17 H  s         
   195      0.709736  26 H  s               183     -0.514550  20 H  s         
   191      0.514550  24 H  s               175     -0.506363  16 H  s         
   193      0.506363  25 H  s               173     -0.457018  15 H  s         

 Vector   50  Occ=0.000000D+00  E=-2.141789D-02  Symmetry=a'
              MO Center= -2.1D-02, -5.1D-02, -3.4D-16, r^2= 1.1D+01
   Bfn.  Coefficient  Atom+Function         Bfn.  Coefficient  Atom+Function  
  ----- ------------  ---------------      ----- ------------  ---------------
    51      0.873764   4 C  s                 6      0.705677   1 C  s         
   183      0.566556  20 H  s               191      0.566556  24 H  s         
   175      0.545385  16 H  s               193      0.545385  25 H  s         
   167     -0.528298  12 H  s               171     -0.528298  14 H  s         
   185      0.503945  21 H  s               189      0.503945  23 H  s         

 Vector   51  Occ=0.000000D+00  E=-1.741614D-02  Symmetry=a'
              MO Center=  3.9D-01,  1.9D+00,  2.4D-14, r^2= 6.5D+00
   Bfn.  Coefficient  Atom+Function         Bfn.  Coefficient  Atom+Function  
  ----- ------------  ---------------      ----- ------------  ---------------
     6      1.277986   1 C  s                23     -0.958878   2 N  py        
   169     -0.923129  13 H  s               175      0.801817  16 H  s         
   193      0.801817  25 H  s                 7      0.707680   1 C  px        
    36     -0.574907   3 C  s               156     -0.574907  11 C  s         
    38      0.485733   3 C  py              158      0.485733  11 C  py        

 Vector   52  Occ=0.000000D+00  E=-9.262091D-03  Symmetry=a'
              MO Center= -5.0D-01,  1.2D+00,  1.6D-13, r^2= 8.0D+00
   Bfn.  Coefficient  Atom+Function         Bfn.  Coefficient  Atom+Function  
  ----- ------------  ---------------      ----- ------------  ---------------
    51      1.452773   4 C  s                36     -0.935669   3 C  s         
   156     -0.935669  11 C  s               179     -0.828936  18 H  s         
   181     -0.828936  19 H  s               177      0.731449  17 H  s         
   195      0.731449  26 H  s                22      0.626325   2 N  px        
    53      0.557172   4 C  py                6      0.435499   1 C  s         

 Vector   53  Occ=0.000000D+00  E= 1.521795D-04  Symmetry=a"
              MO Center=  3.2D-01,  1.8D+00, -1.3D-13, r^2= 6.5D+00
   Bfn.  Coefficient  Atom+Function         Bfn.  Coefficient  Atom+Function  
  ----- ------------  ---------------      ----- ------------  ---------------
   173      0.952387  15 H  s               197     -0.952387  27 H  s         
   179      0.737064  18 H  s               181     -0.737064  19 H  s         
    54      0.648229   4 C  pz               38     -0.625387   3 C  py        
   158      0.625387  11 C  py              175     -0.542741  16 H  s         
   193      0.542741  25 H  s               167      0.499842  12 H  s         

 Vector   54  Occ=0.000000D+00  E= 5.102888D-03  Symmetry=a'
              MO Center=  5.9D-03,  8.0D-01, -1.7D-13, r^2= 9.9D+00
   Bfn.  Coefficient  Atom+Function         Bfn.  Coefficient  Atom+Function  
  ----- ------------  ---------------      ----- ------------  ---------------
    51      1.014905   4 C  s                22      0.796634   2 N  px        
   177     -0.716355  17 H  s               195     -0.716355  26 H  s         
     6     -0.637007   1 C  s                39      0.624608   3 C  pz        
   159     -0.624608  11 C  pz              167      0.502444  12 H  s         
   171      0.502444  14 H  s               185      0.442791  21 H  s         

 Vector   55  Occ=0.000000D+00  E= 9.886083D-03  Symmetry=a"
              MO Center= -2.5D-01,  2.0D+00,  8.2D-14, r^2= 6.7D+00
   Bfn.  Coefficient  Atom+Function         Bfn.  Coefficient  Atom+Function  
  ----- ------------  ---------------      ----- ------------  ---------------
   167     -1.031535  12 H  s               171      1.031535  14 H  s         
     9      1.011779   1 C  pz               24     -0.873618   2 N  pz        
   183      0.531602  20 H  s               191     -0.531602  24 H  s         
    81     -0.503628   6 C  s               141      0.503628  10 C  s         
    37     -0.482556   3 C  px              157      0.482556  11 C  px        

 Vector   56  Occ=0.000000D+00  E= 1.267168D-02  Symmetry=a'
              MO Center=  2.9D-02,  4.2D-01,  3.8D-14, r^2= 1.1D+01
   Bfn.  Coefficient  Atom+Function         Bfn.  Coefficient  Atom+Function  
  ----- ------------  ---------------      ----- ------------  ---------------
    66      0.807282   5 C  s                52     -0.650221   4 C  px        
   173     -0.609825  15 H  s               197     -0.609825  27 H  s         
    23     -0.565080   2 N  py              169      0.551184  13 H  s         
     8     -0.546390   1 C  py                6     -0.524091   1 C  s         
    96     -0.502330   7 C  s               126     -0.502330   9 C  s         

 Vector   57  Occ=0.000000D+00  E= 2.766713D-02  Symmetry=a'
[...]
   65 Bend                    10     9    23               119.81320   -0.44047
   66 Bend                    12     1    13               109.90882   -0.39747
   67 Bend                    12     1    14               109.94161   -0.62592
   68 Bend                    13     1    14               109.90882   -0.39747
   69 Bend                    15     3    16               110.33007    0.79581
   70 Bend                    15     3    17               109.88803   -0.33714
   71 Bend                    16     3    17               110.05216   -0.91466
   72 Bend                    18     4    19               108.50816    1.76768
   73 Bend                    25    11    26               110.05216   -0.91466
   74 Bend                    25    11    27               110.33007    0.79581
   75 Bend                    26    11    27               109.88803   -0.33714
   76 Torsion                  1     2     3    15         -60.14492   -5.19064
   77 Torsion                  1     2     3    16         179.60144   -6.21161
   78 Torsion                  1     2     3    17          59.52629   -5.21059
   79 Torsion                  1     2     4     5         180.00000    0.00000
   80 Torsion                  1     2     4    18          56.94262    0.01414
   81 Torsion                  1     2     4    19         -56.94262   -0.01414
   82 Torsion                  1     2    11    25        -179.60144    6.21161
   83 Torsion                  1     2    11    26         -59.52629    5.21059
   84 Torsion                  1     2    11    27          60.14492    5.19064
   85 Torsion                  2     4     5     6          91.52154    1.27090
   86 Torsion                  2     4     5    10         -91.52154   -1.27090
   87 Torsion                  3     2     1    12         -60.32934    0.21729
   88 Torsion                  3     2     1    13          59.65483    0.28288
   89 Torsion                  3     2     1    14         179.63900    0.34848
   90 Torsion                  3     2     4     5         -60.62716    0.20396
   91 Torsion                  3     2     4    18         176.31546    0.21810
   92 Torsion                  3     2     4    19          62.43022    0.18981
   93 Torsion                  3     2    11    25          61.13308    5.44315
   94 Torsion                  3     2    11    26        -178.79177    4.44212
   95 Torsion                  3     2    11    27         -59.12056    4.42217
   96 Torsion                  4     2     1    12          60.01583   -0.06560
   97 Torsion                  4     2     1    13         180.00000    0.00000
   98 Torsion                  4     2     1    14         -60.01583    0.06560
   99 Torsion                  4     2     3    15        -178.76101   -5.08349
  100 Torsion                  4     2     3    16          60.98536   -6.10447
  101 Torsion                  4     2     3    17         -59.08980   -5.10344
  102 Torsion                  4     2    11    25         -60.98536    6.10447
  103 Torsion                  4     2    11    26          59.08980    5.10344
  104 Torsion                  4     2    11    27         178.76101    5.08349
  105 Torsion                  4     5     6     7         178.51726   -1.99211
  106 Torsion                  4     5     6    20          -0.12683   -1.37658
  107 Torsion                  4     5    10     9        -178.51726    1.99211
  108 Torsion                  4     5    10    24           0.12683    1.37658
  109 Torsion                  5     4     2    11          60.62716   -0.20396
  110 Torsion                  5     6     7     8          -0.49599   -0.16418
  111 Torsion                  5     6     7    21        -179.62444    0.10026
  112 Torsion                  5    10     9     8           0.49599    0.16418
  113 Torsion                  5    10     9    23         179.62444   -0.10026
  114 Torsion                  6     5     4    18        -149.29382   -1.05101
  115 Torsion                  6     5     4    19         -27.66310    3.59281
  116 Torsion                  6     5    10     9          -1.51852   -0.51765
  117 Torsion                  6     5    10    24         177.12557   -1.13318
  118 Torsion                  6     7     8     9          -0.54858   -0.19151
  119 Torsion                  6     7     8    22        -179.53594    0.04107
  120 Torsion                  7     6     5    10           1.51852    0.51765
  121 Torsion                  7     8     9    10           0.54858    0.19151
  122 Torsion                  7     8     9    23        -178.57652    0.46296
  123 Torsion                  8     7     6    20         178.15611   -0.79193
  124 Torsion                  8     9    10    24        -178.15611    0.79193
  125 Torsion                  9     8     7    21         178.57652   -0.46296
  126 Torsion                 10     5     4    18          27.66310   -3.59281
  127 Torsion                 10     5     4    19         149.29382    1.05101
  128 Torsion                 10     5     6    20        -177.12557    1.13318
  129 Torsion                 10     9     8    22         179.53594   -0.04107
  130 Torsion                 11     2     1    12        -179.63900   -0.34848
  131 Torsion                 11     2     1    13         -59.65483   -0.28288
  132 Torsion                 11     2     1    14          60.32934   -0.21729
  133 Torsion                 11     2     3    15          59.12056   -4.42217
  134 Torsion                 11     2     3    16         -61.13308   -5.44315
  135 Torsion                 11     2     3    17         178.79177   -4.44212
  136 Torsion                 11     2     4    18         -62.43022   -0.18981
  137 Torsion                 11     2     4    19        -176.31546   -0.21810
  138 Torsion                 20     6     7    21          -0.97234   -0.52748
  139 Torsion                 21     7     8    22          -0.41084   -0.23039
  140 Torsion                 22     8     9    23           0.41084    0.23039
  141 Torsion                 23     9    10    24           0.97234    0.52748

 ==============================================================================
                                internuclear distances
 ------------------------------------------------------------------------------
       center one      |      center two      | atomic units |  angstroms
 ------------------------------------------------------------------------------
    2 N                |   1 C                |     2.84653  |     1.50632
    3 C                |   2 N                |     2.84435  |     1.50517
    4 C                |   2 N                |     2.94514  |     1.55850
    5 C                |   4 C                |     2.83886  |     1.50226
    6 C                |   5 C                |     2.65382  |     1.40434
    7 C                |   6 C                |     2.63462  |     1.39418
    8 C                |   7 C                |     2.63933  |     1.39667
    9 C                |   8 C                |     2.63933  |     1.39667
   10 C                |   5 C                |     2.65382  |     1.40434
   10 C                |   9 C                |     2.63462  |     1.39418
   11 C                |   2 N                |     2.84435  |     1.50517
   12 H                |   1 C                |     2.06175  |     1.09103
   13 H                |   1 C                |     2.06194  |     1.09113
   14 H                |   1 C                |     2.06175  |     1.09103
   15 H                |   3 C                |     2.06199  |     1.09116
   16 H                |   3 C                |     2.05828  |     1.08920
   17 H                |   3 C                |     2.06202  |     1.09118
   18 H                |   4 C                |     2.06531  |     1.09292
   19 H                |   4 C                |     2.06531  |     1.09292
   20 H                |   6 C                |     2.05527  |     1.08760
   21 H                |   7 C                |     2.05147  |     1.08559
   22 H                |   8 C                |     2.05178  |     1.08575
   23 H                |   9 C                |     2.05147  |     1.08559
   24 H                |  10 C                |     2.05527  |     1.08760
   25 H                |  11 C                |     2.05828  |     1.08920
   26 H                |  11 C                |     2.06202  |     1.09118
   27 H                |  11 C                |     2.06199  |     1.09116
 ------------------------------------------------------------------------------
                         number of included internuclear distances:         27
 ==============================================================================



 ==============================================================================
                                 internuclear angles
 ------------------------------------------------------------------------------
        center 1       |       center 2       |       center 3       |  degrees
 ------------------------------------------------------------------------------
    2 N                |   1 C                |  12 H                |   109.02
    2 N                |   1 C                |  13 H                |   109.01
    2 N                |   1 C                |  14 H                |   109.02
   12 H                |   1 C                |  13 H                |   109.91
   12 H                |   1 C                |  14 H                |   109.94
   13 H                |   1 C                |  14 H                |   109.91
    1 C                |   2 N                |   3 C                |   109.15
    1 C                |   2 N                |   4 C                |   107.90
    1 C                |   2 N                |  11 C                |   109.15
    3 C                |   2 N                |   4 C                |   110.69
    3 C                |   2 N                |  11 C                |   109.22
    4 C                |   2 N                |  11 C                |   110.69
    2 N                |   3 C                |  15 H                |   108.64
    2 N                |   3 C                |  16 H                |   108.99
    2 N                |   3 C                |  17 H                |   108.91
   15 H                |   3 C                |  16 H                |   110.33
   15 H                |   3 C                |  17 H                |   109.89
   16 H                |   3 C                |  17 H                |   110.05
    2 N                |   4 C                |   5 C                |   115.61
    2 N                |   4 C                |  18 H                |   104.45
    2 N                |   4 C                |  19 H                |   104.45
    5 C                |   4 C                |  18 H                |   111.62
    5 C                |   4 C                |  19 H                |   111.62
   18 H                |   4 C                |  19 H                |   108.51
    4 C                |   5 C                |   6 C                |   120.44
    4 C                |   5 C                |  10 C                |   120.44
    6 C                |   5 C                |  10 C                |   119.05
    5 C                |   6 C                |   7 C                |   120.45
    5 C                |   6 C                |  20 H                |   120.07
    7 C                |   6 C                |  20 H                |   119.47
    6 C                |   7 C                |   8 C                |   119.99
    6 C                |   7 C                |  21 H                |   119.81
    8 C                |   7 C                |  21 H                |   120.19
    7 C                |   8 C                |   9 C                |   120.06
    7 C                |   8 C                |  22 H                |   119.97
    9 C                |   8 C                |  22 H                |   119.97
    8 C                |   9 C                |  10 C                |   119.99
    8 C                |   9 C                |  23 H                |   120.19
   10 C                |   9 C                |  23 H                |   119.81
    5 C                |  10 C                |   9 C                |   120.45
    5 C                |  10 C                |  24 H                |   120.07
    9 C                |  10 C                |  24 H                |   119.47
    2 N                |  11 C                |  25 H                |   108.99
    2 N                |  11 C                |  26 H                |   108.91
    2 N                |  11 C                |  27 H                |   108.64
   25 H                |  11 C                |  26 H                |   110.05
   25 H                |  11 C                |  27 H                |   110.33
   26 H                |  11 C                |  27 H                |   109.89
 ------------------------------------------------------------------------------
                            number of included internuclear angles:         48
 ==============================================================================




 Task  times  cpu:      864.5s     wall:      864.5s


                                NWChem Input Module
                                -------------------




                     NWChem Electrostatic Potential Fit Module
                     -----------------------------------------


 Atom parameters

 Number of atoms is                                   27
 Number of basis functions is                        197


 Grid parameters

 Maximum number of grid points is                   9957
 Number of grid points is                           9956
 Grid range                                     0.200000 nm
 Grid spacing                                   0.025000 nm
 Probe radius                                   0.100000 nm
 Atom radius factor                             1.000000

 Atomic radii

    1    0.130000
    6    0.177000
    7    0.170000
 FASTESP  F
  using M.O. file = ./H.movecs


    Atom              Coordinates                           Charge

                                                  ESP   
                                                        
 
    1 C    -0.061749    0.324360    0.000000   -0.387442
    2 N     0.007465    0.190572    0.000000    0.406832
    3 C     0.093956    0.179723    0.122707   -0.279039
    4 C    -0.102248    0.079883    0.000000   -0.274441
    5 C    -0.051742   -0.061599    0.000000    0.194720
    6 C    -0.030851   -0.129685    0.121035   -0.196842
    7 C     0.013081   -0.262000    0.120991   -0.068443
    8 C     0.035615   -0.328032    0.000000   -0.095285
    9 C     0.013081   -0.262000   -0.120991   -0.073318
   10 C    -0.030851   -0.129685   -0.121035   -0.189783
   11 C     0.093956    0.179723   -0.122707   -0.271579
   12 H    -0.123873    0.332260    0.089340    0.163900
   13 H     0.013546    0.403331    0.000000    0.166643
   14 H    -0.123873    0.332260   -0.089340    0.163651
   15 H     0.167964    0.259871    0.120409    0.140880
   16 H     0.143315    0.082629    0.122803    0.125507
   17 H     0.031059    0.189806    0.211301    0.138477
   18 H    -0.162448    0.101156   -0.088703    0.136759
   19 H    -0.162448    0.101156    0.088703    0.136918
   20 H    -0.051024   -0.080030    0.215673    0.128695
   21 H     0.028310   -0.313845    0.215147    0.133910
   22 H     0.069104   -0.431314    0.000000    0.138695
   23 H     0.028310   -0.313845   -0.215147    0.135227
   24 H    -0.051024   -0.080030   -0.215673    0.126743
   25 H     0.143315    0.082629   -0.122803    0.123136
   26 H     0.031059    0.189806   -0.211301    0.137050
   27 H     0.167964    0.259871   -0.120409    0.138430
                                            ------------
                                                1.000000

 Dipole moment                                  0.812108

 Quadrupole moment Qxx                        -22.645162
                   Qyy                         28.928360
                   Qzz                         -6.283198

 RMS deviation kJ/mol                           0.067020

 RRMS %                                         1.893644

 Task  times  cpu:       24.5s     wall:       24.5s


                                NWChem Input Module
                                -------------------


 Summary of allocated global arrays
-----------------------------------
  No active global arrays



                         GA Statistics for process    0
                         ------------------------------

       create   destroy   get      put      acc     scatter   gather  read&inc
calls: 2220     2220     4.70e+06 2.04e+05 3.04e+06    0        0     1.97e+05 
number of processes/call 0.00e+00 0.00e+00 0.00e+00 0.00e+00 0.00e+00
bytes total:             3.89e+09 5.99e+08 1.76e+09 0.00e+00 0.00e+00 1.58e+06
bytes remote:            0.00e+00 0.00e+00 0.00e+00 0.00e+00 0.00e+00 0.00e+00
Max memory consumed for GA by this process: 12108408 bytes

MA_summarize_allocated_blocks: starting scan ...
MA_summarize_allocated_blocks: scan completed: 0 heap blocks, 0 stack blocks
MA usage statistics:

	allocation statistics:
					      heap	     stack
					      ----	     -----
	current number of blocks	         0	         0
	maximum number of blocks	        25	        57
	current total bytes		         0	         0
	maximum total bytes		  12435240	  33374824
	maximum total K-bytes		     12436	     33375
	maximum total M-bytes		        13	        34


                                     CITATION
                                     --------
                Please cite the following reference when publishing
                           results obtained with NWChem:

                 M. Valiev, E.J. Bylaska, N. Govind, K. Kowalski,
              T.P. Straatsma, H.J.J. van Dam, D. Wang, J. Nieplocha,
                        E. Apra, T.L. Windus, W.A. de Jong
                 "NWChem: a comprehensive and scalable open-source
                  solution for large scale molecular simulations"
                      Comput. Phys. Commun. 181, 1477 (2010)
                           doi:10.1016/j.cpc.2010.04.018

                                      AUTHORS
                                      -------
     E. Apra, E. J. Bylaska, N. Govind, K. Kowalski, M. Valiev, W. A. de Jong,
      T. P. Straatsma, H. J. J. van Dam, D. Wang, T. L. Windus, N. P. Bauman,
       A. Panyala, J. Hammond, J. Autschbach, K. Bhaskaran-Nair, J. Brabec,
    K. Lopata, S. A. Fischer, S. Krishnamoorthy, M. Jacquelin, W. Ma, M. Klemm,
       O. Villa, Y. Chen, V. Anisimov, F. Aquino, S. Hirata, M. T. Hackler,
           Eric Hermes, L. Jensen, J. E. Moore, J. C. Becca, V. Konjkov,
            D. Mejia-Rodriguez, T. Risthaus, M. Malagoli, A. Marenich,
   A. Otero-de-la-Roza, J. Mullin, P. Nichols, R. Peverati, J. Pittner, Y. Zhao,
        P.-D. Fan, A. Fonari, M. J. Williamson, R. J. Harrison, J. R. Rehr,
      M. Dupuis, D. Silverstein, D. M. A. Smith, J. Nieplocha, V. Tipparaju,
      M. Krishnan, B. E. Van Kuiken, A. Vazquez-Mayagoitia, M. Swart, Q. Wu,
   T. Van Voorhis, A. A. Auer, M. Nooijen, L. D. Crosby, E. Brown, G. Cisneros,
     G. I. Fann, H. Fruchtl, J. Garza, K. Hirao, R. A. Kendall, J. A. Nichols,
       K. Tsemekhman, K. Wolinski, J. Anchell, D. E. Bernholdt, P. Borowski,
       T. Clark, D. Clerc, H. Dachsel, M. J. O. Deegan, K. Dyall, D. Elwood,
      E. Glendening, M. Gutowski, A. C. Hess, J. Jaffe, B. G. Johnson, J. Ju,
        R. Kobayashi, R. Kutteh, Z. Lin, R. Littlefield, X. Long, B. Meng,
      T. Nakajima, S. Niu, L. Pollack, M. Rosing, K. Glaesemann, G. Sandrone,
      M. Stave, H. Taylor, G. Thomas, J. H. van Lenthe, A. T. Wong, Z. Zhang.

 Total times  cpu:      889.2s     wall:      889.2s
