 Entering Link 1 = C:\G09W\l1.exe PID=      7364.
  
 Copyright (c) 1988,1990,1992,1993,1995,1998,2003,2009,2011,
            Gaussian, Inc.  All Rights Reserved.
  
 This is part of the Gaussian(R) 09 program.  It is based on
 the Gaussian(R) 03 system (copyright 2003, Gaussian, Inc.),
 the Gaussian(R) 98 system (copyright 1998, Gaussian, Inc.),
 the Gaussian(R) 94 system (copyright 1995, Gaussian, Inc.),
 the Gaussian 92(TM) system (copyright 1992, Gaussian, Inc.),
 the Gaussian 90(TM) system (copyright 1990, Gaussian, Inc.),
 the Gaussian 88(TM) system (copyright 1988, Gaussian, Inc.),
 the Gaussian 86(TM) system (copyright 1986, Carnegie Mellon
 University), and the Gaussian 82(TM) system (copyright 1983,
 Carnegie Mellon University). Gaussian is a federally registered
 trademark of Gaussian, Inc.
  
 This software contains proprietary and confidential information,
 including trade secrets, belonging to Gaussian, Inc.
  
 This software is provided under written license and may be
 used, copied, transmitted, or stored only in accord with that
 written license.
  
 The following legend is applicable only to US Government
 contracts under FAR:
  
                    RESTRICTED RIGHTS LEGEND
  
 Use, reproduction and disclosure by the US Government is
 subject to restrictions as set forth in subparagraphs (a)
 and (c) of the Commercial Computer Software - Restricted
 Rights clause in FAR 52.227-19.
  
 Gaussian, Inc.
 340 Quinnipiac St., Bldg. 40, Wallingford CT 06492
  
  
 ---------------------------------------------------------------
 Warning -- This program may not be used in any manner that
 competes with the business of Gaussian, Inc. or will provide
 assistance to any competitor of Gaussian, Inc.  The licensee
 of this program is prohibited from giving any competitor of
 Gaussian, Inc. access to this program.  By using this program,
 the user acknowledges that Gaussian, Inc. is engaged in the
 business of creating and licensing software in the field of
 computational chemistry and represents and warrants to the
 licensee that it is not a competitor of Gaussian, Inc. and that
 it will not use this program in any manner prohibited above.
 ---------------------------------------------------------------
  

 Cite this work as:
 Gaussian 09, Revision C.01,
 M. J. Frisch, G. W. Trucks, H. B. Schlegel, G. E. Scuseria, 
 M. A. Robb, J. R. Cheeseman, G. Scalmani, V. Barone, B. Mennucci, 
 G. A. Petersson, H. Nakatsuji, M. Caricato, X. Li, H. P. Hratchian, 
 A. F. Izmaylov, J. Bloino, G. Zheng, J. L. Sonnenberg, M. Hada, 
 M. Ehara, K. Toyota, R. Fukuda, J. Hasegawa, M. Ishida, T. Nakajima, 
 Y. Honda, O. Kitao, H. Nakai, T. Vreven, J. A. Montgomery, Jr., 
 J. E. Peralta, F. Ogliaro, M. Bearpark, J. J. Heyd, E. Brothers, 
 K. N. Kudin, V. N. Staroverov, T. Keith, R. Kobayashi, J. Normand, 
 K. Raghavachari, A. Rendell, J. C. Burant, S. S. Iyengar, J. Tomasi, 
 M. Cossi, N. Rega, J. M. Millam, M. Klene, J. E. Knox, J. B. Cross, 
 V. Bakken, C. Adamo, J. Jaramillo, R. Gomperts, R. E. Stratmann, 
 O. Yazyev, A. J. Austin, R. Cammi, C. Pomelli, J. W. Ochterski, 
 R. L. Martin, K. Morokuma, V. G. Zakrzewski, G. A. Voth, 
 P. Salvador, J. J. Dannenberg, S. Dapprich, A. D. Daniels, 
 O. Farkas, J. B. Foresman, J. V. Ortiz, J. Cioslowski, 
 and D. J. Fox, Gaussian, Inc., Wallingford CT, 2010.
 
 ******************************************
 Gaussian 09:  IA32W-G09RevC.01 23-Sep-2011
                19-Aug-2020 
 ******************************************
 %chk=C:\G09W\Scratch\A.chk
 --------------------------------------------
 # opt mp2/6-311++g pop=nbo geom=connectivity
 --------------------------------------------
 1/18=20,19=15,38=1,57=2/1,3;
 2/9=110,12=2,17=6,18=5,40=1/2;
 3/5=4,6=6,7=1010,11=9,16=1,25=1,30=1,71=1/1,2,3;
 4//1;
 5/5=2,38=5/2;
 8/6=4,10=2/1;
 9/15=2,16=-3/6;
 10/5=1/2;
 6/7=2,8=2,9=2,10=2/1,7;
 7/12=2/1,2,3,16;
 1/18=20,19=15/3(2);
 2/9=110/2;
 99//99;
 2/9=110/2;
 3/5=4,6=6,7=1010,11=9,16=1,25=1,30=1,71=1/1,2,3;
 4/5=5,16=3/1;
 5/5=2,38=5/2;
 8/6=4,10=2/1;
 9/15=2,16=-3/6;
 10/5=1/2;
 7/12=2/1,2,3,16;
 1/18=20,19=15/3(-8);
 2/9=110/2;
 6/7=2,8=2,9=2,10=2/1,7;
 99//99;
 -------------------
 Title Card Required
 -------------------
 Charge =  0 Multiplicity = 1
 Symbolic Z-Matrix:
 C                    -5.47783  -0.8347   -0.00063 
 C                    -4.08267  -0.8347   -0.00063 
 C                    -3.38513   0.37305  -0.00063 
 C                    -4.08278   1.58156  -0.00183 
 C                    -5.47761   1.58149  -0.00231 
 C                    -6.17521   0.37328  -0.00132 
 H                    -6.02758  -1.78701  -0.00018 
 H                    -3.53316  -1.78721   0.00068 
 H                    -3.53258   2.53371  -0.00189 
 H                    -6.02773   2.53377  -0.00327 
 H                    -7.27481   0.37346  -0.0015 
 S                    -1.60513   0.37318   0.00039 
 H                    -1.16713   0.37153  -1.23421 
 

 GradGradGradGradGradGradGradGradGradGradGradGradGradGradGradGradGradGrad
 Berny optimization.
 Initialization pass.
                           ----------------------------
                           !    Initial Parameters    !
                           ! (Angstroms and Degrees)  !
 --------------------------                            --------------------------
 ! Name  Definition              Value          Derivative Info.                !
 --------------------------------------------------------------------------------
 ! R1    R(1,2)                  1.3952         estimate D2E/DX2                !
 ! R2    R(1,6)                  1.3948         estimate D2E/DX2                !
 ! R3    R(1,7)                  1.0996         estimate D2E/DX2                !
 ! R4    R(2,3)                  1.3947         estimate D2E/DX2                !
 ! R5    R(2,8)                  1.0997         estimate D2E/DX2                !
 ! R6    R(3,4)                  1.3954         estimate D2E/DX2                !
 ! R7    R(3,12)                 1.78           estimate D2E/DX2                !
 ! R8    R(4,5)                  1.3948         estimate D2E/DX2                !
 ! R9    R(4,9)                  1.0997         estimate D2E/DX2                !
 ! R10   R(5,6)                  1.3951         estimate D2E/DX2                !
 ! R11   R(5,10)                 1.0998         estimate D2E/DX2                !
 ! R12   R(6,11)                 1.0996         estimate D2E/DX2                !
 ! R13   R(12,13)                1.31           estimate D2E/DX2                !
 ! A1    A(2,1,6)              119.9985         estimate D2E/DX2                !
 ! A2    A(2,1,7)              119.9972         estimate D2E/DX2                !
 ! A3    A(6,1,7)              120.0043         estimate D2E/DX2                !
 ! A4    A(1,2,3)              120.0086         estimate D2E/DX2                !
 ! A5    A(1,2,8)              119.9808         estimate D2E/DX2                !
 ! A6    A(3,2,8)              120.0106         estimate D2E/DX2                !
 ! A7    A(2,3,4)              119.9942         estimate D2E/DX2                !
 ! A8    A(2,3,12)             120.0128         estimate D2E/DX2                !
 ! A9    A(4,3,12)             119.993          estimate D2E/DX2                !
 ! A10   A(3,4,5)              119.994          estimate D2E/DX2                !
 ! A11   A(3,4,9)              119.9811         estimate D2E/DX2                !
 ! A12   A(5,4,9)              120.0249         estimate D2E/DX2                !
 ! A13   A(4,5,6)              120.0047         estimate D2E/DX2                !
 ! A14   A(4,5,10)             120.0113         estimate D2E/DX2                !
 ! A15   A(6,5,10)             119.984          estimate D2E/DX2                !
 ! A16   A(1,6,5)              120.0            estimate D2E/DX2                !
 ! A17   A(1,6,11)             120.008          estimate D2E/DX2                !
 ! A18   A(5,6,11)             119.992          estimate D2E/DX2                !
 ! A19   A(3,12,13)            109.5            estimate D2E/DX2                !
 ! D1    D(6,1,2,3)              0.0323         estimate D2E/DX2                !
 ! D2    D(6,1,2,8)            179.9532         estimate D2E/DX2                !
 ! D3    D(7,1,2,3)           -179.9729         estimate D2E/DX2                !
 ! D4    D(7,1,2,8)             -0.052          estimate D2E/DX2                !
 ! D5    D(2,1,6,5)              0.0149         estimate D2E/DX2                !
 ! D6    D(2,1,6,11)           179.9892         estimate D2E/DX2                !
 ! D7    D(7,1,6,5)           -179.9798         estimate D2E/DX2                !
 ! D8    D(7,1,6,11)            -0.0056         estimate D2E/DX2                !
 ! D9    D(1,2,3,4)             -0.0568         estimate D2E/DX2                !
 ! D10   D(1,2,3,12)           179.9619         estimate D2E/DX2                !
 ! D11   D(8,2,3,4)           -179.9777         estimate D2E/DX2                !
 ! D12   D(8,2,3,12)             0.041          estimate D2E/DX2                !
 ! D13   D(2,3,4,5)              0.0341         estimate D2E/DX2                !
 ! D14   D(2,3,4,9)           -179.9964         estimate D2E/DX2                !
 ! D15   D(12,3,4,5)          -179.9846         estimate D2E/DX2                !
 ! D16   D(12,3,4,9)            -0.0151         estimate D2E/DX2                !
 ! D17   D(2,3,12,13)           89.9408         estimate D2E/DX2                !
 ! D18   D(4,3,12,13)          -90.0405         estimate D2E/DX2                !
 ! D19   D(3,4,5,6)              0.0131         estimate D2E/DX2                !
 ! D20   D(3,4,5,10)          -179.9995         estimate D2E/DX2                !
 ! D21   D(9,4,5,6)           -179.9563         estimate D2E/DX2                !
 ! D22   D(9,4,5,10)             0.0311         estimate D2E/DX2                !
 ! D23   D(4,5,6,1)             -0.0376         estimate D2E/DX2                !
 ! D24   D(4,5,6,11)           179.9881         estimate D2E/DX2                !
 ! D25   D(10,5,6,1)           179.975          estimate D2E/DX2                !
 ! D26   D(10,5,6,11)            0.0007         estimate D2E/DX2                !
 --------------------------------------------------------------------------------
 Trust Radius=3.00D-01 FncErr=1.00D-07 GrdErr=1.00D-07
 Number of steps in this run=     68 maximum allowed number of steps=    100.
 GradGradGradGradGradGradGradGradGradGradGradGradGradGradGradGradGradGrad

                          Input orientation:                          
 ---------------------------------------------------------------------
 Center     Atomic      Atomic             Coordinates (Angstroms)
 Number     Number       Type             X           Y           Z
 ---------------------------------------------------------------------
      1          6           0       -5.477826   -0.834697   -0.000634
      2          6           0       -4.082666   -0.834697   -0.000634
      3          6           0       -3.385128    0.373054   -0.000634
      4          6           0       -4.082782    1.581563   -0.001833
      5          6           0       -5.477607    1.581485   -0.002312
      6          6           0       -6.175208    0.373279   -0.001316
      7          1           0       -6.027585   -1.787014   -0.000184
      8          1           0       -3.533158   -1.787210    0.000681
      9          1           0       -3.532582    2.533706   -0.001892
     10          1           0       -6.027729    2.533766   -0.003265
     11          1           0       -7.274812    0.373462   -0.001496
     12         16           0       -1.605128    0.373184    0.000392
     13          1           0       -1.167129    0.371528   -1.234215
 ---------------------------------------------------------------------
                    Distance matrix (angstroms):
                    1          2          3          4          5
     1  C    0.000000
     2  C    1.395160   0.000000
     3  C    2.416205   1.394712   0.000000
     4  C    2.790065   2.416260   1.395427   0.000000
     5  C    2.416183   2.789946   2.416356   1.394825   0.000000
     6  C    1.394829   2.416183   2.790080   2.416236   1.395138
     7  H    1.099610   2.165553   3.412986   3.889675   3.413102
     8  H    2.165414   1.099655   2.165330   3.413316   3.889601
     9  H    3.889745   3.413024   2.165678   1.099680   2.165606
    10  H    3.413055   3.889707   3.413506   2.165528   1.099761
    11  H    2.165365   3.413128   3.889684   3.412999   2.165471
    12  S    4.056694   2.756296   1.780000   2.756620   4.056611
    13  H    4.643146   3.387780   2.537960   3.388802   4.643468
                    6          7          8          9         10
     6  C    0.000000
     7  H    2.165331   0.000000
     8  H    3.412938   2.494427   0.000000
     9  H    3.413344   4.989355   4.320917   0.000000
    10  H    2.165516   4.320781   4.989362   2.495147   0.000000
    11  H    1.099604   2.494641   4.320704   4.320988   2.494420
    12  S    4.570080   4.921847   2.895617   2.895331   4.922147
    13  H    5.157605   5.459502   3.432668   3.433511   5.460397
                   11         12         13
    11  H    0.000000
    12  S    5.669684   0.000000
    13  H    6.230842   1.310000   0.000000
 Stoichiometry    C6H6S
 Framework group  C1[X(C6H6S)]
 Deg. of freedom    33
 Full point group                 C1      NOp   1
 Largest Abelian subgroup         C1      NOp   1
 Largest concise Abelian subgroup C1      NOp   1
                         Standard orientation:                         
 ---------------------------------------------------------------------
 Center     Atomic      Atomic             Coordinates (Angstroms)
 Number     Number       Type             X           Y           Z
 ---------------------------------------------------------------------
      1          6           0        1.592804   -1.208086    0.009360
      2          6           0        0.197892   -1.207984   -0.016954
      3          6           0       -0.499420   -0.000182   -0.030830
      4          6           0        0.198189    1.208276   -0.017193
      5          6           0        1.592757    1.208096    0.009594
      6          6           0        2.290151   -0.000161    0.022476
      7          1           0        2.142393   -2.160444    0.019846
      8          1           0       -0.351574   -2.160458   -0.028066
      9          1           0       -0.351833    2.160459   -0.028078
     10          1           0        2.142844    2.160337    0.020356
     11          1           0        3.389556   -0.000059    0.043395
     12         16           0       -2.279084    0.000077   -0.065429
     13          1           0       -2.740291   -0.000809    1.160698
 ---------------------------------------------------------------------
 Rotational constants (GHZ):      5.5928965      1.5606017      1.2289693
 Standard basis: 6-311++G (5D, 7F)
 There are   151 symmetry adapted basis functions of A   symmetry.
 Integral buffers will be    262144 words long.
 Raffenetti 1 integral format.
 Two-electron integral symmetry is turned on.
   151 basis functions,   260 primitive gaussians,   151 cartesian basis functions
    29 alpha electrons       29 beta electrons
       nuclear repulsion energy       318.2612945925 Hartrees.
 NAtoms=   13 NActive=   13 NUniq=   13 SFac= 1.00D+00 NAtFMM=   60 NAOKFM=F Big=F
 One-electron integrals computed using PRISM.
 NBasis=   151 RedAO= T  NBF=   151
 NBsUse=   150 1.00D-06 NBFU=   150
 Harris functional with IExCor=  205 diagonalized for initial guess.
 ExpMin= 3.60D-02 ExpMax= 9.34D+04 ExpMxC= 3.17D+03 IAcc=3 IRadAn=         5 AccDes= 0.00D+00
 HarFok:  IExCor=  205 AccDes= 0.00D+00 IRadAn=         5 IDoV= 1
 ScaDFX=  1.000000  1.000000  1.000000  1.000000
 FoFCou: FMM=F IPFlag=           0 FMFlag=      100000 FMFlg1=           0
         NFxFlg=           0 DoJE=T BraDBF=F KetDBF=T FulRan=T
         Omega=  0.000000  0.000000  1.000000  0.000000  0.000000 ICntrl=     500 IOpCl=  0
         NMat0=    1 NMatS0=    1 NMatT0=    0 NMatD0=    1 NMtDS0=    0 NMtDT0=    0
         I1Cent=           4 NGrid=           0.
 Petite list used in FoFCou.
 Initial guess orbital symmetries:
       Occupied  (A) (A) (A) (A) (A) (A) (A) (A) (A) (A) (A) (A)
                 (A) (A) (A) (A) (A) (A) (A) (A) (A) (A) (A) (A)
                 (A) (A) (A) (A) (A)
       Virtual   (A) (A) (A) (A) (A) (A) (A) (A) (A) (A) (A) (A)
                 (A) (A) (A) (A) (A) (A) (A) (A) (A) (A) (A) (A)
                 (A) (A) (A) (A) (A) (A) (A) (A) (A) (A) (A) (A)
                 (A) (A) (A) (A) (A) (A) (A) (A) (A) (A) (A) (A)
                 (A) (A) (A) (A) (A) (A) (A) (A) (A) (A) (A) (A)
                 (A) (A) (A) (A) (A) (A) (A) (A) (A) (A) (A) (A)
                 (A) (A) (A) (A) (A) (A) (A) (A) (A) (A) (A) (A)
                 (A) (A) (A) (A) (A) (A) (A) (A) (A) (A) (A) (A)
                 (A) (A) (A) (A) (A) (A) (A) (A) (A) (A) (A) (A)
                 (A) (A) (A) (A) (A) (A) (A) (A) (A) (A) (A) (A)
                 (A)
 The electronic state of the initial guess is 1-A.
 Requested convergence on RMS density matrix=1.00D-08 within 128 cycles.
 Requested convergence on MAX density matrix=1.00D-06.
 Requested convergence on             energy=1.00D-06.
 No special actions if energy rises.
 Initial convergence to 1.0D-05 achieved.  Increase integral accuracy.
 SCF Done:  E(RHF) =  -628.149117628     A.U. after   16 cycles
             Convg  =    0.9860D-08             -V/T =  2.0001
 ExpMin= 3.60D-02 ExpMax= 9.34D+04 ExpMxC= 3.17D+03 IAcc=3 IRadAn=         5 AccDes= 0.00D+00
 HarFok:  IExCor=  205 AccDes= 0.00D+00 IRadAn=         5 IDoV=-2
 ScaDFX=  1.000000  1.000000  1.000000  1.000000
 Range of M.O.s used for correlation:    12   150
 NBasis=   151 NAE=    29 NBE=    29 NFC=    11 NFV=     0
 NROrb=    139 NOA=    18 NOB=    18 NVA=   121 NVB=   121

 **** Warning!!: The largest alpha MO coefficient is  0.17229691D+03

 Fully direct method using O(ONN) memory.
 JobTyp=1 Pass  1:  I=  12 to  27 NPSUse=  1 ParTrn=F ParDer=F DoDerP=T.
 JobTyp=1 Pass  2:  I=  28 to  29 NPSUse=  1 ParTrn=F ParDer=F DoDerP=T.
 Spin components of T(2) and E(2):
     alpha-alpha T2 =       0.3554684723D-01 E2=     -0.7927688395D-01
     alpha-beta  T2 =       0.1978357102D+00 E2=     -0.4646827818D+00
     beta-beta   T2 =       0.3554684723D-01 E2=     -0.7927688395D-01
 ANorm=    0.1126467667D+01
 E2 =    -0.6232365497D+00 EUMP2 =    -0.62877235417778D+03
          IDoAtm=1111111111111
          Differentiating once with respect to electric field.
                with respect to dipole field.
          Differentiating once with respect to nuclear coordinates.
          There are     1 degrees of freedom in the 1st order CPHF.  IDoFFX=0.
 LinEq1:  Iter=  0 NonCon=     1 RMS=3.34D-03 Max=6.64D-02
 AX will form     1 AO Fock derivatives at one time.
 LinEq1:  Iter=  1 NonCon=     1 RMS=8.02D-04 Max=9.28D-03
 LinEq1:  Iter=  2 NonCon=     1 RMS=2.67D-04 Max=6.10D-03
 LinEq1:  Iter=  3 NonCon=     1 RMS=9.07D-05 Max=1.97D-03
 LinEq1:  Iter=  4 NonCon=     1 RMS=4.70D-05 Max=1.65D-03
 LinEq1:  Iter=  5 NonCon=     1 RMS=1.25D-05 Max=2.40D-04
 LinEq1:  Iter=  6 NonCon=     1 RMS=2.61D-06 Max=2.69D-05
 LinEq1:  Iter=  7 NonCon=     1 RMS=8.48D-07 Max=8.20D-06
 LinEq1:  Iter=  8 NonCon=     1 RMS=1.72D-07 Max=1.83D-06
 LinEq1:  Iter=  9 NonCon=     1 RMS=6.06D-08 Max=8.80D-07
 LinEq1:  Iter= 10 NonCon=     1 RMS=1.12D-08 Max=9.82D-08
 LinEq1:  Iter= 11 NonCon=     1 RMS=2.73D-09 Max=2.50D-08
 LinEq1:  Iter= 12 NonCon=     1 RMS=7.56D-10 Max=7.10D-09
 LinEq1:  Iter= 13 NonCon=     1 RMS=2.00D-10 Max=4.04D-09
 LinEq1:  Iter= 14 NonCon=     0 RMS=4.51D-11 Max=8.27D-10
 Linear equations converged to 1.000D-10 1.000D-09 after    14 iterations.
 End of Minotr Frequency-dependent properties file   721 does not exist.
 End of Minotr Frequency-dependent properties file   722 does not exist.

 **********************************************************************

            Population analysis using the SCF density.

 **********************************************************************

 Orbital symmetries:
       Occupied  (A) (A) (A) (A) (A) (A) (A) (A) (A) (A) (A) (A)
                 (A) (A) (A) (A) (A) (A) (A) (A) (A) (A) (A) (A)
                 (A) (A) (A) (A) (A)
       Virtual   (A) (A) (A) (A) (A) (A) (A) (A) (A) (A) (A) (A)
                 (A) (A) (A) (A) (A) (A) (A) (A) (A) (A) (A) (A)
                 (A) (A) (A) (A) (A) (A) (A) (A) (A) (A) (A) (A)
                 (A) (A) (A) (A) (A) (A) (A) (A) (A) (A) (A) (A)
                 (A) (A) (A) (A) (A) (A) (A) (A) (A) (A) (A) (A)
                 (A) (A) (A) (A) (A) (A) (A) (A) (A) (A) (A) (A)
                 (A) (A) (A) (A) (A) (A) (A) (A) (A) (A) (A) (A)
                 (A) (A) (A) (A) (A) (A) (A) (A) (A) (A) (A) (A)
                 (A) (A) (A) (A) (A) (A) (A) (A) (A) (A) (A) (A)
                 (A) (A) (A) (A) (A) (A) (A) (A) (A) (A) (A) (A)
                 (A)
 The electronic state is 1-A.
 Alpha  occ. eigenvalues --  -91.96219 -11.29225 -11.26462 -11.26456 -11.26305
 Alpha  occ. eigenvalues --  -11.26009 -11.25984  -8.96912  -6.65210  -6.64910
 Alpha  occ. eigenvalues --   -6.64727  -1.18137  -1.06863  -1.03563  -0.96155
 Alpha  occ. eigenvalues --   -0.84455  -0.81896  -0.71401  -0.64905  -0.64212
 Alpha  occ. eigenvalues --   -0.60326  -0.60076  -0.54005  -0.51221  -0.50863
 Alpha  occ. eigenvalues --   -0.45176  -0.37448  -0.35242  -0.34976
 Alpha virt. eigenvalues --    0.03706   0.04746   0.04789   0.06325   0.06963
 Alpha virt. eigenvalues --    0.08546   0.09618   0.10170   0.10848   0.11767
 Alpha virt. eigenvalues --    0.12975   0.13609   0.14743   0.15175   0.16839
 Alpha virt. eigenvalues --    0.17545   0.17677   0.18073   0.18279   0.18544
 Alpha virt. eigenvalues --    0.19910   0.20577   0.20880   0.20969   0.21677
 Alpha virt. eigenvalues --    0.22128   0.23059   0.23710   0.23911   0.24973
 Alpha virt. eigenvalues --    0.25642   0.27980   0.29515   0.29962   0.31202
 Alpha virt. eigenvalues --    0.31689   0.33602   0.35298   0.36023   0.39644
 Alpha virt. eigenvalues --    0.40219   0.41248   0.41668   0.45321   0.45979
 Alpha virt. eigenvalues --    0.46161   0.49384   0.50725   0.54745   0.55067
 Alpha virt. eigenvalues --    0.62188   0.64211   0.64996   0.70419   0.70995
 Alpha virt. eigenvalues --    0.72334   0.73138   0.73678   0.75867   0.76858
 Alpha virt. eigenvalues --    0.78375   0.81042   0.81563   0.82741   0.85559
 Alpha virt. eigenvalues --    0.87793   0.90953   0.94429   0.95240   0.97253
 Alpha virt. eigenvalues --    1.01306   1.02816   1.04039   1.06278   1.07297
 Alpha virt. eigenvalues --    1.07876   1.12287   1.14214   1.16423   1.16805
 Alpha virt. eigenvalues --    1.24187   1.24381   1.52884   1.99831   2.07717
 Alpha virt. eigenvalues --    2.10199   2.75353   2.77823   2.79598   2.83482
 Alpha virt. eigenvalues --    2.86498   2.94521   3.02197   3.03566   3.05444
 Alpha virt. eigenvalues --    3.11265   3.12759   3.17440   3.18098   3.26806
 Alpha virt. eigenvalues --    3.31053   3.34055   3.43628   3.48784   3.49476
 Alpha virt. eigenvalues --    3.60237   3.62498   3.67925   3.69764   3.79948
 Alpha virt. eigenvalues --    8.46926  18.41898  18.46193  18.55034  24.33014
 Alpha virt. eigenvalues --   24.56335  24.57149  24.75871  24.77715  25.03549
 Alpha virt. eigenvalues --  192.33703
          Condensed to atoms (all electrons):
              1          2          3          4          5          6
     1  C    6.956240  -0.271964  -1.660260   1.128061  -0.040056   0.289244
     2  C   -0.271964   8.874889  -0.363599  -2.410652   1.136232  -0.661045
     3  C   -1.660260  -0.363599   9.729584  -0.348890  -1.657038   0.516892
     4  C    1.128061  -2.410652  -0.348890   8.876975  -0.283014  -0.660463
     5  C   -0.040056   1.136232  -1.657038  -0.283014   6.956717   0.288490
     6  C    0.289244  -0.661045   0.516892  -0.660463   0.288490   6.183252
     7  H    0.356773  -0.117861  -0.006676   0.096401  -0.043581  -0.029292
     8  H   -0.054524   0.506960  -0.128897  -0.138780   0.097820  -0.019594
     9  H    0.097621  -0.139006  -0.128155   0.507473  -0.055392  -0.019651
    10  H   -0.043492   0.096442  -0.006784  -0.118195   0.357045  -0.029321
    11  H   -0.078952  -0.018040   0.104478  -0.017772  -0.078840   0.333715
    12  S   -0.290747  -0.084358  -0.895552  -0.081545  -0.290559   0.233855
    13  H    0.014038  -0.044419   0.117271  -0.044256   0.013805  -0.000775
              7          8          9         10         11         12
     1  C    0.356773  -0.054524   0.097621  -0.043492  -0.078952  -0.290747
     2  C   -0.117861   0.506960  -0.139006   0.096442  -0.018040  -0.084358
     3  C   -0.006676  -0.128897  -0.128155  -0.006784   0.104478  -0.895552
     4  C    0.096401  -0.138780   0.507473  -0.118195  -0.017772  -0.081545
     5  C   -0.043581   0.097820  -0.055392   0.357045  -0.078840  -0.290559
     6  C   -0.029292  -0.019594  -0.019651  -0.029321   0.333715   0.233855
     7  H    0.389388  -0.002099   0.005058  -0.004787   0.006035  -0.010639
     8  H   -0.002099   0.387084  -0.008597   0.005052  -0.003383  -0.022627
     9  H    0.005058  -0.008597   0.387183  -0.002136  -0.003374  -0.022652
    10  H   -0.004787   0.005052  -0.002136   0.389396   0.006030  -0.010616
    11  H    0.006035  -0.003383  -0.003374   0.006030   0.397895   0.006419
    12  S   -0.010639  -0.022627  -0.022652  -0.010616   0.006419  17.753524
    13  H    0.000205   0.000931   0.000982   0.000193  -0.000366   0.171146
             13
     1  C    0.014038
     2  C   -0.044419
     3  C    0.117271
     4  C   -0.044256
     5  C    0.013805
     6  C   -0.000775
     7  H    0.000205
     8  H    0.000931
     9  H    0.000982
    10  H    0.000193
    11  H   -0.000366
    12  S    0.171146
    13  H    0.635084
 Mulliken atomic charges:
              1
     1  C   -0.401982
     2  C   -0.503580
     3  C    0.727627
     4  C   -0.505343
     5  C   -0.401630
     6  C   -0.425308
     7  H    0.361076
     8  H    0.380654
     9  H    0.380646
    10  H    0.361173
    11  H    0.346154
    12  S   -0.455649
    13  H    0.136161
 Sum of Mulliken atomic charges =   0.00000
 Mulliken charges with hydrogens summed into heavy atoms:
              1
     1  C   -0.040906
     2  C   -0.122925
     3  C    0.727627
     4  C   -0.124697
     5  C   -0.040457
     6  C   -0.079153
    12  S   -0.319488
 Sum of Mulliken charges with hydrogens summed into heavy atoms =   0.00000
 Electronic spatial extent (au):  <R**2>=            932.9858
 Charge=              0.0000 electrons
 Dipole moment (field-independent basis, Debye):
    X=              1.8270    Y=             -0.0015    Z=              1.4436  Tot=              2.3285
 Quadrupole moment (field-independent basis, Debye-Ang):
   XX=            -48.4497   YY=            -45.8119   ZZ=            -53.2768
   XY=              0.0027   XZ=             -4.4460   YZ=             -0.0009
 Traceless Quadrupole moment (field-independent basis, Debye-Ang):
   XX=              0.7298   YY=              3.3676   ZZ=             -4.0973
   XY=              0.0027   XZ=             -4.4460   YZ=             -0.0009
 Octapole moment (field-independent basis, Debye-Ang**2):
  XXX=             15.4924  YYY=             -0.0090  ZZZ=              1.4182  XYY=              6.8690
  XXY=             -0.0041  XXZ=             13.7491  XZZ=             -8.6322  YZZ=             -0.0019
  YYZ=              0.3918  XYZ=              0.0071
 Hexadecapole moment (field-independent basis, Debye-Ang**3):
 XXXX=           -879.1552 YYYY=           -289.4661 ZZZZ=            -72.0258 XXXY=              0.0362
 XXXZ=            -38.9611 YYYX=             -0.0075 YYYZ=              0.0047 ZZZX=             -5.5746
 ZZZY=             -0.0021 XXYY=           -206.7913 XXZZ=           -173.5032 YYZZ=            -73.5003
 XXYZ=             -0.0083 YYXZ=             -1.4807 ZZXY=              0.0012
 N-N= 3.182612945925D+02 E-N=-2.119536516968D+03  KE= 6.281024399682D+02
 ******************************Gaussian NBO Version 3.1******************************
             N A T U R A L   A T O M I C   O R B I T A L   A N D
          N A T U R A L   B O N D   O R B I T A L   A N A L Y S I S
 ******************************Gaussian NBO Version 3.1******************************
       /RESON  / : Allow strongly delocalized NBO set

 Analyzing the SCF density

 Job title: Title Card Required                                             

 Storage needed:     69217 in NPA,     91851 in NBO (  33553889 available)


 NATURAL POPULATIONS:  Natural atomic orbital occupancies 
                                                          
   NAO  Atom  No  lang   Type(AO)    Occupancy      Energy
 ----------------------------------------------------------
     1    C    1  S      Cor( 1S)     1.99923     -11.10201
     2    C    1  S      Val( 2S)     0.94848      -0.17958
     3    C    1  S      Ryd( 3S)     0.00169       0.91898
     4    C    1  S      Ryd( 4S)     0.00011       1.31082
     5    C    1  S      Ryd( 5S)     0.00000      23.54239
     6    C    1  px     Val( 2p)     1.08678      -0.05112
     7    C    1  px     Ryd( 4p)     0.00652       1.02365
     8    C    1  px     Ryd( 3p)     0.00031       0.46812
     9    C    1  px     Ryd( 5p)     0.00011       3.07662
    10    C    1  py     Val( 2p)     1.15046      -0.06560
    11    C    1  py     Ryd( 4p)     0.00720       1.17225
    12    C    1  py     Ryd( 3p)     0.00028       0.59659
    13    C    1  py     Ryd( 5p)     0.00006       3.07486
    14    C    1  pz     Val( 2p)     1.00199      -0.07860
    15    C    1  pz     Ryd( 4p)     0.00221       0.69479
    16    C    1  pz     Ryd( 3p)     0.00016       0.37990
    17    C    1  pz     Ryd( 5p)     0.00001       2.98577

    18    C    2  S      Cor( 1S)     1.99909     -11.10073
    19    C    2  S      Val( 2S)     0.94383      -0.17082
    20    C    2  S      Ryd( 4S)     0.00193       1.02845
    21    C    2  S      Ryd( 3S)     0.00021       0.95982
    22    C    2  S      Ryd( 5S)     0.00001      23.89273
    23    C    2  px     Val( 2p)     1.09581      -0.05930
    24    C    2  px     Ryd( 4p)     0.00771       1.01382
    25    C    2  px     Ryd( 3p)     0.00029       0.47084
    26    C    2  px     Ryd( 5p)     0.00013       3.17596
    27    C    2  py     Val( 2p)     1.15665      -0.07420
    28    C    2  py     Ryd( 4p)     0.00670       1.14596
    29    C    2  py     Ryd( 3p)     0.00024       0.48327
    30    C    2  py     Ryd( 5p)     0.00006       3.18960
    31    C    2  pz     Val( 2p)     0.96248      -0.07132
    32    C    2  pz     Ryd( 4p)     0.00207       0.69183
    33    C    2  pz     Ryd( 3p)     0.00027       0.33559
    34    C    2  pz     Ryd( 5p)     0.00001       3.03830

    35    C    3  S      Cor( 1S)     1.99886     -11.14421
    36    C    3  S      Val( 2S)     0.94350      -0.22956
    37    C    3  S      Ryd( 4S)     0.00161       1.09641
    38    C    3  S      Ryd( 3S)     0.00034       0.51738
    39    C    3  S      Ryd( 5S)     0.00001      24.29991
    40    C    3  px     Val( 2p)     1.04528      -0.14919
    41    C    3  px     Ryd( 4p)     0.00777       1.24322
    42    C    3  px     Ryd( 3p)     0.00023       0.93809
    43    C    3  px     Ryd( 5p)     0.00016       3.02372
    44    C    3  py     Val( 2p)     1.10357      -0.08710
    45    C    3  py     Ryd( 4p)     0.00687       0.95610
    46    C    3  py     Ryd( 3p)     0.00009       0.53689
    47    C    3  py     Ryd( 5p)     0.00011       3.15785
    48    C    3  pz     Val( 2p)     1.09011      -0.12277
    49    C    3  pz     Ryd( 4p)     0.00156       0.79387
    50    C    3  pz     Ryd( 3p)     0.00025       0.42144
    51    C    3  pz     Ryd( 5p)     0.00002       2.93460

    52    C    4  S      Cor( 1S)     1.99909     -11.10083
    53    C    4  S      Val( 2S)     0.94394      -0.17099
    54    C    4  S      Ryd( 4S)     0.00193       1.02840
    55    C    4  S      Ryd( 3S)     0.00021       0.96066
    56    C    4  S      Ryd( 5S)     0.00001      23.89228
    57    C    4  px     Val( 2p)     1.09586      -0.05931
    58    C    4  px     Ryd( 4p)     0.00771       1.01397
    59    C    4  px     Ryd( 3p)     0.00029       0.47090
    60    C    4  px     Ryd( 5p)     0.00013       3.17610
    61    C    4  py     Val( 2p)     1.15634      -0.07404
    62    C    4  py     Ryd( 4p)     0.00670       1.14539
    63    C    4  py     Ryd( 3p)     0.00024       0.48330
    64    C    4  py     Ryd( 5p)     0.00006       3.18957
    65    C    4  pz     Val( 2p)     0.96253      -0.07134
    66    C    4  pz     Ryd( 4p)     0.00208       0.69186
    67    C    4  pz     Ryd( 3p)     0.00027       0.33565
    68    C    4  pz     Ryd( 5p)     0.00001       3.03825

    69    C    5  S      Cor( 1S)     1.99922     -11.10203
    70    C    5  S      Val( 2S)     0.94850      -0.17962
    71    C    5  S      Ryd( 3S)     0.00169       0.91886
    72    C    5  S      Ryd( 4S)     0.00011       1.30971
    73    C    5  S      Ryd( 5S)     0.00000      23.54357
    74    C    5  px     Val( 2p)     1.08696      -0.05122
    75    C    5  px     Ryd( 4p)     0.00652       1.02372
    76    C    5  px     Ryd( 3p)     0.00031       0.46805
    77    C    5  px     Ryd( 5p)     0.00011       3.07701
    78    C    5  py     Val( 2p)     1.15034      -0.06557
    79    C    5  py     Ryd( 4p)     0.00720       1.17186
    80    C    5  py     Ryd( 3p)     0.00028       0.59612
    81    C    5  py     Ryd( 5p)     0.00006       3.07534
    82    C    5  pz     Val( 2p)     1.00200      -0.07860
    83    C    5  pz     Ryd( 4p)     0.00221       0.69474
    84    C    5  pz     Ryd( 3p)     0.00016       0.37976
    85    C    5  pz     Ryd( 5p)     0.00001       2.98598

    86    C    6  S      Cor( 1S)     1.99923     -11.10437
    87    C    6  S      Val( 2S)     0.95047      -0.18168
    88    C    6  S      Ryd( 3S)     0.00157       0.98900
    89    C    6  S      Ryd( 4S)     0.00007       1.67093
    90    C    6  S      Ryd( 5S)     0.00000      23.16726
    91    C    6  px     Val( 2p)     1.17675      -0.06832
    92    C    6  px     Ryd( 4p)     0.00711       1.24108
    93    C    6  px     Ryd( 3p)     0.00026       0.59979
    94    C    6  px     Ryd( 5p)     0.00003       3.10848
    95    C    6  py     Val( 2p)     1.06253      -0.04904
    96    C    6  py     Ryd( 4p)     0.00632       0.93490
    97    C    6  py     Ryd( 3p)     0.00042       0.41629
    98    C    6  py     Ryd( 5p)     0.00012       3.08912
    99    C    6  pz     Val( 2p)     0.97652      -0.07372
   100    C    6  pz     Ryd( 4p)     0.00215       0.69579
   101    C    6  pz     Ryd( 3p)     0.00011       0.36523
   102    C    6  pz     Ryd( 5p)     0.00001       2.99593

   103    H    7  S      Val( 1S)     0.79062       0.09962
   104    H    7  S      Ryd( 3S)     0.00070       0.72810
   105    H    7  S      Ryd( 4S)     0.00017       2.47086
   106    H    7  S      Ryd( 2S)     0.00002       0.20313

   107    H    8  S      Val( 1S)     0.78167       0.10507
   108    H    8  S      Ryd( 3S)     0.00079       1.00686
   109    H    8  S      Ryd( 2S)     0.00025       0.66565
   110    H    8  S      Ryd( 4S)     0.00012       1.75334

   111    H    9  S      Val( 1S)     0.78163       0.10510
   112    H    9  S      Ryd( 3S)     0.00079       1.00751
   113    H    9  S      Ryd( 2S)     0.00025       0.66535
   114    H    9  S      Ryd( 4S)     0.00012       1.75291

   115    H   10  S      Val( 1S)     0.79060       0.09955
   116    H   10  S      Ryd( 3S)     0.00070       0.72788
   117    H   10  S      Ryd( 4S)     0.00017       2.47137
   118    H   10  S      Ryd( 2S)     0.00002       0.20298

   119    H   11  S      Val( 1S)     0.79237       0.09843
   120    H   11  S      Ryd( 3S)     0.00068       0.82757
   121    H   11  S      Ryd( 4S)     0.00016       2.27870
   122    H   11  S      Ryd( 2S)     0.00002       0.28342

   123    S   12  S      Cor( 1S)     2.00000     -90.73771
   124    S   12  S      Cor( 2S)     1.99942      -9.94034
   125    S   12  S      Val( 3S)     1.65923      -0.87549
   126    S   12  S      Ryd( 5S)     0.00345       0.89421
   127    S   12  S      Ryd( 4S)     0.00015       0.41749
   128    S   12  S      Ryd( 6S)     0.00000      14.91239
   129    S   12  S      Ryd( 7S)     0.00000     185.53526
   130    S   12  px     Cor( 2p)     1.99990      -6.64109
   131    S   12  px     Val( 3p)     1.06397      -0.16365
   132    S   12  px     Ryd( 4p)     0.00583       0.50214
   133    S   12  px     Ryd( 5p)     0.00007       0.75353
   134    S   12  px     Ryd( 6p)     0.00004       1.80321
   135    S   12  px     Ryd( 7p)     0.00000      18.10673
   136    S   12  py     Cor( 2p)     1.99999      -6.64061
   137    S   12  py     Val( 3p)     1.96987      -0.37246
   138    S   12  py     Ryd( 4p)     0.00525       0.51490
   139    S   12  py     Ryd( 5p)     0.00003       0.83792
   140    S   12  py     Ryd( 6p)     0.00005       1.62193
   141    S   12  py     Ryd( 7p)     0.00000      18.13104
   142    S   12  pz     Cor( 2p)     1.99995      -6.64139
   143    S   12  pz     Val( 3p)     1.31691      -0.22430
   144    S   12  pz     Ryd( 4p)     0.00199       0.58938
   145    S   12  pz     Ryd( 5p)     0.00010       0.81163
   146    S   12  pz     Ryd( 6p)     0.00005       1.53381
   147    S   12  pz     Ryd( 7p)     0.00000      18.13029

   148    H   13  S      Val( 1S)     0.88025      -0.11978
   149    H   13  S      Ryd( 3S)     0.00102       0.50908
   150    H   13  S      Ryd( 2S)     0.00021       0.28494
   151    H   13  S      Ryd( 4S)     0.00017       2.50165

 WARNING:  1 low occupancy (<1.9990e) core orbital  found on  C    3

 WARNING:  Population inversion found on atom  C    1
           Population inversion found on atom  C    2
           Population inversion found on atom  C    3
           Population inversion found on atom  C    4
           Population inversion found on atom  C    5
           Population inversion found on atom  C    6
           Population inversion found on atom  H    7
           Population inversion found on atom  H    8
           Population inversion found on atom  H    9
           Population inversion found on atom  H   10
           Population inversion found on atom  H   11
           Population inversion found on atom  S   12
           Population inversion found on atom  H   13


 Summary of Natural Population Analysis:                  
                                                          
                                       Natural Population 
                Natural  -----------------------------------------------
    Atom  No    Charge         Core      Valence    Rydberg      Total
 -----------------------------------------------------------------------
      C    1   -0.20560      1.99923     4.18771    0.01866     6.20560
      C    2   -0.17750      1.99909     4.15877    0.01964     6.17750
      C    3   -0.20033      1.99886     4.18246    0.01901     6.20033
      C    4   -0.17740      1.99909     4.15867    0.01964     6.17740
      C    5   -0.20569      1.99922     4.18780    0.01866     6.20569
      C    6   -0.18369      1.99923     4.16628    0.01818     6.18369
      H    7    0.20848      0.00000     0.79062    0.00090     0.79152
      H    8    0.21717      0.00000     0.78167    0.00116     0.78283
      H    9    0.21720      0.00000     0.78163    0.00116     0.78280
      H   10    0.20850      0.00000     0.79060    0.00090     0.79150
      H   11    0.20677      0.00000     0.79237    0.00086     0.79323
      S   12   -0.02625      9.99925     6.00999    0.01701    16.02625
      H   13    0.11834      0.00000     0.88025    0.00141     0.88166
 =======================================================================
   * Total *    0.00000     21.99397    35.86883    0.13720    58.00000

                                 Natural Population      
 --------------------------------------------------------
   Core                      21.99397 ( 99.9726% of  22)
   Valence                   35.86883 ( 99.6356% of  36)
   Natural Minimal Basis     57.86280 ( 99.7635% of  58)
   Natural Rydberg Basis      0.13720 (  0.2365% of  58)
 --------------------------------------------------------

    Atom  No          Natural Electron Configuration
 ----------------------------------------------------------------------------
      C    1      [core]2S( 0.95)2p( 3.24)4p( 0.02)
      C    2      [core]2S( 0.94)2p( 3.21)4p( 0.02)
      C    3      [core]2S( 0.94)2p( 3.24)4p( 0.02)
      C    4      [core]2S( 0.94)2p( 3.21)4p( 0.02)
      C    5      [core]2S( 0.95)2p( 3.24)4p( 0.02)
      C    6      [core]2S( 0.95)2p( 3.22)4p( 0.02)
      H    7            1S( 0.79)
      H    8            1S( 0.78)
      H    9            1S( 0.78)
      H   10            1S( 0.79)
      H   11            1S( 0.79)
      S   12      [core]3S( 1.66)3p( 4.35)4p( 0.01)
      H   13            1S( 0.88)


 NATURAL BOND ORBITAL ANALYSIS:

                       Occupancies       Lewis Structure    Low   High
           Occ.    -------------------  -----------------   occ   occ
  Cycle   Thresh.   Lewis   Non-Lewis     CR  BD  3C  LP    (L)   (NL)   Dev
 =============================================================================
   1(1)    1.90    54.79927   3.20073     11  13   0   5     3      3    0.44
   2(2)    1.90    54.79927   3.20073     11  13   0   5     3      3    0.44
   3(1)    1.80    54.79927   3.20073     11  13   0   5     3      3    0.44
   4(2)    1.80    54.79927   3.20073     11  13   0   5     3      3    0.44
   5(1)    1.70    54.79927   3.20073     11  13   0   5     3      3    0.44
   6(2)    1.70    54.79927   3.20073     11  13   0   5     3      3    0.44
   7(1)    1.60    56.69376   1.30624     11  16   0   2     0      3    0.43
   8(2)    1.60    56.69060   1.30940     11  16   0   2     0      3    0.44
   9(3)    1.60    56.69376   1.30624     11  16   0   2     0      3    0.43
  10(1)    1.50    56.69376   1.30624     11  16   0   2     0      3    0.43
  11(2)    1.50    56.69060   1.30940     11  16   0   2     0      3    0.44
  12(3)    1.50    56.69376   1.30624     11  16   0   2     0      3    0.43
  13(1)    1.60    56.69376   1.30624     11  16   0   2     0      3    0.43
 -----------------------------------------------------------------------------

 Structure accepted: RESONANCE keyword permits strongly delocalized structure

 WARNING:  1 low occupancy (<1.9990e) core orbital  found on  C    3

 --------------------------------------------------------
   Core                     21.99399 ( 99.973% of  22)
   Valence Lewis            34.69977 ( 96.388% of  36)
  ==================       ============================
   Total Lewis              56.69376 ( 97.748% of  58)
  -----------------------------------------------------
   Valence non-Lewis         1.22484 (  2.112% of  58)
   Rydberg non-Lewis         0.08140 (  0.140% of  58)
  ==================       ============================
   Total non-Lewis           1.30624 (  2.252% of  58)
 --------------------------------------------------------


       (Occupancy)   Bond orbital/ Coefficients/ Hybrids
 ---------------------------------------------------------------------------------
     1. (1.97617) BD ( 1) C   1 - C   2  
                ( 49.70%)   0.7050* C   1 s( 35.73%)p 1.80( 64.27%)
                                            0.0000  0.5976 -0.0146 -0.0013 -0.0001
                                           -0.7993  0.0276  0.0109 -0.0014 -0.0257
                                            0.0433 -0.0065  0.0007 -0.0195  0.0005
                                            0.0000  0.0000
                ( 50.30%)   0.7093* C   2 s( 35.76%)p 1.80( 64.24%)
                                           -0.0002  0.5977 -0.0164 -0.0054  0.0001
                                            0.7994 -0.0240 -0.0090  0.0011 -0.0247
                                            0.0449 -0.0068  0.0002  0.0103 -0.0009
                                           -0.0001 -0.0001
     2. (1.98070) BD ( 1) C   1 - C   6  
                ( 50.03%)   0.7073* C   1 s( 35.81%)p 1.79( 64.19%)
                                            0.0000  0.5982 -0.0163  0.0002  0.0000
                                            0.4236 -0.0513  0.0010 -0.0003  0.6780
                                           -0.0032 -0.0107  0.0010  0.0079 -0.0010
                                            0.0000  0.0000
                ( 49.97%)   0.7069* C   6 s( 35.81%)p 1.79( 64.19%)
                                            0.0000  0.5982 -0.0147 -0.0003  0.0000
                                           -0.3759 -0.0230  0.0099 -0.0010 -0.7056
                                            0.0456  0.0048 -0.0002 -0.0074 -0.0004
                                            0.0002  0.0000
     3. (1.65615) BD ( 2) C   1 - C   6  
                ( 50.96%)   0.7139* C   1 s(  0.00%)p 1.00(100.00%)
                                            0.0000  0.0025  0.0007  0.0003  0.0001
                                           -0.0226 -0.0007 -0.0006  0.0000  0.0003
                                            0.0000  0.0003  0.0000  0.9992  0.0313
                                            0.0092 -0.0004
                ( 49.04%)   0.7003* C   6 s(  0.00%)p 1.00(100.00%)
                                            0.0000  0.0002  0.0006  0.0003  0.0001
                                           -0.0196 -0.0005 -0.0006  0.0001  0.0001
                                           -0.0002 -0.0003  0.0001  0.9992  0.0321
                                            0.0094 -0.0004
     4. (1.98215) BD ( 1) C   1 - H   7  
                ( 60.47%)   0.7776* C   1 s( 28.52%)p 2.51( 71.48%)
                                            0.0004 -0.5333 -0.0265 -0.0009 -0.0001
                                           -0.4212 -0.0070 -0.0021  0.0001  0.7329
                                            0.0137  0.0044 -0.0002 -0.0084 -0.0003
                                           -0.0001  0.0000
                ( 39.53%)   0.6287* H   7 s(100.00%)
                                           -1.0000 -0.0010 -0.0011 -0.0001
     5. (1.97974) BD ( 1) C   2 - C   3  
                ( 49.18%)   0.7013* C   2 s( 35.79%)p 1.79( 64.21%)
                                            0.0000  0.5980 -0.0161  0.0052  0.0006
                                           -0.4250  0.0450 -0.0007 -0.0004  0.6777
                                           -0.0024 -0.0116  0.0005 -0.0066  0.0013
                                           -0.0007  0.0001
                ( 50.82%)   0.7129* C   3 s( 37.44%)p 1.67( 62.56%)
                                            0.0000  0.6118  0.0130  0.0024  0.0001
                                            0.3542  0.0132  0.0036  0.0055 -0.7062
                                            0.0338 -0.0006 -0.0039  0.0075  0.0000
                                            0.0006  0.0000
     6. (1.68338) BD ( 2) C   2 - C   3  
                ( 45.16%)   0.6720* C   2 s(  0.00%)p 1.00(100.00%)
                                            0.0000  0.0001  0.0026  0.0005  0.0001
                                           -0.0130 -0.0025 -0.0017 -0.0002  0.0018
                                            0.0011 -0.0001  0.0004  0.9996  0.0203
                                            0.0132 -0.0010
                ( 54.84%)   0.7405* C   3 s(  0.02%)p99.99( 99.98%)
                                            0.0000 -0.0156 -0.0020  0.0004 -0.0001
                                            0.0064 -0.0042 -0.0011 -0.0011  0.0001
                                           -0.0005  0.0008  0.0000  0.9996  0.0152
                                           -0.0133 -0.0027
     7. (1.98165) BD ( 1) C   2 - H   8  
                ( 60.94%)   0.7806* C   2 s( 28.52%)p 2.51( 71.48%)
                                            0.0004 -0.5334 -0.0259 -0.0007  0.0007
                                            0.4206  0.0116  0.0009 -0.0007  0.7332
                                            0.0130  0.0022  0.0009  0.0043 -0.0011
                                           -0.0003 -0.0001
                ( 39.06%)   0.6250* H   8 s(100.00%)
                                           -1.0000 -0.0017  0.0006 -0.0009
     8. (1.97971) BD ( 1) C   3 - C   4  
                ( 50.83%)   0.7129* C   3 s( 37.42%)p 1.67( 62.58%)
                                            0.0000  0.6115  0.0129  0.0024  0.0000
                                            0.3542  0.0133  0.0036  0.0055  0.7064
                                           -0.0337  0.0006  0.0039  0.0073  0.0000
                                            0.0006  0.0000
                ( 49.17%)   0.7012* C   4 s( 35.75%)p 1.80( 64.25%)
                                            0.0000  0.5977 -0.0161  0.0052  0.0006
                                           -0.4251  0.0450 -0.0006 -0.0004 -0.6779
                                            0.0024  0.0116 -0.0005 -0.0099  0.0012
                                           -0.0007  0.0001
     9. (1.98318) BD ( 1) C   3 - S  12  
                ( 52.78%)   0.7265* C   3 s( 25.21%)p 2.97( 74.79%)
                                            0.0001 -0.5014  0.0266  0.0053  0.0002
                                            0.8643  0.0228  0.0121 -0.0056 -0.0001
                                            0.0000  0.0000  0.0000 -0.0131 -0.0069
                                            0.0018 -0.0006
                ( 47.22%)   0.6871* S  12 s( 20.85%)p 3.80( 79.15%)
                                            0.0000 -0.0003 -0.4542  0.0464  0.0034
                                            0.0000  0.0000 -0.0002 -0.8846  0.0561
                                           -0.0009  0.0039  0.0002  0.0000  0.0002
                                            0.0000  0.0000  0.0000  0.0000  0.0000
                                           -0.0741 -0.0182 -0.0038  0.0047 -0.0002
    10. (1.97620) BD ( 1) C   4 - C   5  
                ( 50.30%)   0.7092* C   4 s( 35.78%)p 1.79( 64.22%)
                                           -0.0002  0.5979 -0.0165 -0.0054  0.0001
                                            0.7993 -0.0240 -0.0090  0.0011  0.0246
                                           -0.0449  0.0068 -0.0002  0.0077 -0.0010
                                           -0.0001 -0.0001
                ( 49.70%)   0.7050* C   5 s( 35.75%)p 1.80( 64.25%)
                                            0.0000  0.5977 -0.0147 -0.0013 -0.0001
                                           -0.7991  0.0276  0.0109 -0.0014  0.0259
                                           -0.0433  0.0065 -0.0007 -0.0213  0.0005
                                            0.0000  0.0000
    11. (1.65190) BD ( 2) C   4 - C   5  
                ( 48.52%)   0.6965* C   4 s(  0.00%)p 1.00(100.00%)
                                           -0.0001  0.0044  0.0023  0.0007  0.0001
                                           -0.0129 -0.0027 -0.0010 -0.0003 -0.0029
                                           -0.0002  0.0005 -0.0003  0.9993  0.0308
                                            0.0122 -0.0010
                ( 51.48%)   0.7175* C   5 s(  0.00%)p 1.00(100.00%)
                                            0.0000  0.0035  0.0012  0.0006  0.0002
                                           -0.0241 -0.0010 -0.0006 -0.0001 -0.0008
                                            0.0000  0.0002 -0.0001  0.9991  0.0338
                                            0.0113 -0.0001
    12. (1.98168) BD ( 1) C   4 - H   9  
                ( 60.94%)   0.7806* C   4 s( 28.53%)p 2.51( 71.47%)
                                           -0.0004  0.5335  0.0259  0.0007 -0.0007
                                           -0.4208 -0.0116 -0.0009  0.0007  0.7330
                                            0.0130  0.0022  0.0009 -0.0058  0.0011
                                            0.0003  0.0001
                ( 39.06%)   0.6250* H   9 s(100.00%)
                                            1.0000  0.0017 -0.0006  0.0009
    13. (1.98069) BD ( 1) C   5 - C   6  
                ( 50.03%)   0.7073* C   5 s( 35.80%)p 1.79( 64.20%)
                                            0.0000  0.5981 -0.0162  0.0001  0.0000
                                            0.4236 -0.0513  0.0010 -0.0003 -0.6781
                                            0.0032  0.0107 -0.0010  0.0075 -0.0010
                                            0.0000  0.0000
                ( 49.97%)   0.7069* C   6 s( 35.80%)p 1.79( 64.20%)
                                            0.0000  0.5981 -0.0147 -0.0003  0.0000
                                           -0.3759 -0.0230  0.0099 -0.0010  0.7057
                                           -0.0456 -0.0048  0.0002 -0.0076 -0.0005
                                            0.0002  0.0000
    14. (1.98214) BD ( 1) C   5 - H  10  
                ( 60.47%)   0.7776* C   5 s( 28.51%)p 2.51( 71.49%)
                                           -0.0004  0.5333  0.0265  0.0009  0.0001
                                            0.4215  0.0070  0.0021 -0.0001  0.7327
                                            0.0137  0.0044 -0.0002  0.0088  0.0003
                                            0.0001  0.0000
                ( 39.53%)   0.6287* H  10 s(100.00%)
                                            1.0000  0.0010  0.0011  0.0001
    15. (1.98227) BD ( 1) C   6 - H  11  
                ( 60.39%)   0.7771* C   6 s( 28.45%)p 2.52( 71.55%)
                                           -0.0004  0.5327  0.0256  0.0006  0.0001
                                            0.8456  0.0165  0.0053  0.0002  0.0000
                                            0.0000  0.0000  0.0000  0.0165  0.0005
                                            0.0001  0.0000
                ( 39.61%)   0.6294* H  11 s(100.00%)
                                            1.0000  0.0011  0.0011  0.0000
    16. (1.98616) BD ( 1) S  12 - H  13  
                ( 56.07%)   0.7488* S  12 s( 15.65%)p 5.39( 84.35%)
                                            0.0000 -0.0002  0.3952 -0.0160  0.0064
                                            0.0003 -0.0001  0.0000 -0.2732  0.0509
                                            0.0003  0.0017  0.0001  0.0000 -0.0006
                                            0.0000  0.0000  0.0000  0.0000 -0.0001
                                            0.8747 -0.0332  0.0020  0.0028  0.0003
                ( 43.93%)   0.6628* H  13 s(100.00%)
                                            1.0000  0.0019 -0.0003  0.0006
    17. (1.99923) CR ( 1) C   1           s(100.00%)p 0.00(  0.00%)
                                            1.0000  0.0002  0.0000  0.0000  0.0000
                                            0.0002  0.0000  0.0000  0.0000 -0.0003
                                            0.0000  0.0000  0.0000  0.0000  0.0000
                                            0.0000  0.0000
    18. (1.99909) CR ( 1) C   2           s(100.00%)p 0.00(  0.00%)
                                            1.0000  0.0003  0.0000  0.0000  0.0000
                                            0.0000  0.0000  0.0000  0.0000 -0.0003
                                            0.0000  0.0000  0.0000  0.0000  0.0000
                                            0.0000  0.0000
    19. (1.99886) CR ( 1) C   3           s(100.00%)
                                            1.0000  0.0001  0.0000  0.0000  0.0000
                                           -0.0001  0.0000  0.0000  0.0000  0.0000
                                            0.0000  0.0000  0.0000  0.0000  0.0000
                                            0.0000  0.0000
    20. (1.99909) CR ( 1) C   4           s(100.00%)p 0.00(  0.00%)
                                            1.0000  0.0003  0.0000  0.0000  0.0000
                                            0.0000  0.0000  0.0000  0.0000  0.0003
                                            0.0000  0.0000  0.0000  0.0001  0.0000
                                            0.0000  0.0000
    21. (1.99923) CR ( 1) C   5           s(100.00%)p 0.00(  0.00%)
                                            1.0000  0.0002  0.0000  0.0000  0.0000
                                            0.0002  0.0000  0.0000  0.0000  0.0003
                                            0.0000  0.0000  0.0000  0.0000  0.0000
                                            0.0000  0.0000
    22. (1.99924) CR ( 1) C   6           s(100.00%)p 0.00(  0.00%)
                                            1.0000  0.0002  0.0000  0.0000  0.0000
                                            0.0003  0.0000  0.0000  0.0000  0.0000
                                            0.0000  0.0000  0.0000  0.0000  0.0000
                                            0.0000  0.0000
    23. (2.00000) CR ( 1) S  12           s(100.00%)
                                            1.0000  0.0000  0.0000  0.0000  0.0000
                                            0.0000  0.0000  0.0000  0.0000  0.0000
                                            0.0000  0.0000  0.0000  0.0000  0.0000
                                            0.0000  0.0000  0.0000  0.0000  0.0000
                                            0.0000  0.0000  0.0000  0.0000  0.0000
    24. (1.99942) CR ( 2) S  12           s(100.00%)p 0.00(  0.00%)
                                            0.0000  1.0000  0.0000  0.0000  0.0000
                                            0.0000  0.0000  0.0000 -0.0003  0.0000
                                            0.0000  0.0000  0.0000  0.0000  0.0000
                                            0.0000  0.0000  0.0000  0.0000  0.0000
                                            0.0001  0.0000  0.0000  0.0000  0.0000
    25. (1.99990) CR ( 3) S  12           s(  0.00%)p 1.00(100.00%)
                                            0.0000  0.0000  0.0001  0.0000  0.0000
                                            0.0000  0.0000  1.0000 -0.0002  0.0000
                                            0.0000  0.0000  0.0000  0.0000  0.0000
                                            0.0000  0.0000  0.0000  0.0000  0.0000
                                           -0.0001  0.0000  0.0000  0.0000  0.0000
    26. (1.99999) CR ( 4) S  12           s(  0.00%)p 1.00(100.00%)
                                            0.0000  0.0000  0.0000  0.0000  0.0000
                                            0.0000  0.0000  0.0000  0.0000  0.0000
                                            0.0000  0.0000  0.0000  1.0000  0.0001
                                            0.0000  0.0000  0.0000  0.0000  0.0000
                                            0.0000  0.0000  0.0000  0.0000  0.0000
    27. (1.99995) CR ( 5) S  12           s(  0.00%)p 1.00(100.00%)
                                            0.0000  0.0000  0.0000  0.0000  0.0000
                                            0.0000  0.0000  0.0000  0.0000  0.0000
                                            0.0000  0.0000  0.0000  0.0000  0.0000
                                            0.0000  0.0000  0.0000  0.0000  1.0000
                                            0.0001  0.0000  0.0000  0.0000  0.0000
    28. (1.98248) LP ( 1) S  12           s( 63.75%)p 0.57( 36.25%)
                                            0.0000 -0.0001  0.7982  0.0181 -0.0007
                                           -0.0001  0.0000 -0.0002 -0.3689  0.0000
                                           -0.0002 -0.0006  0.0004  0.0000  0.0019
                                            0.0001  0.0000  0.0000  0.0000  0.0001
                                           -0.4758 -0.0060  0.0010  0.0032  0.0003
    29. (1.97342) LP ( 2) S  12           s(  0.00%)p 1.00(100.00%)
                                            0.0000  0.0000  0.0012  0.0000  0.0000
                                            0.0000  0.0000  0.0000 -0.0007  0.0000
                                            0.0000  0.0000  0.0000  0.0001 -0.9991
                                           -0.0424  0.0009 -0.0022 -0.0002  0.0000
                                           -0.0015  0.0000  0.0000  0.0000  0.0000
    30. (0.00648) RY*( 1) C   1           s(  1.10%)p89.67( 98.90%)
                                            0.0000  0.0200 -0.0578  0.0854  0.0006
                                           -0.0166  0.4728 -0.0414  0.0319  0.0235
                                           -0.8720  0.0193 -0.0307 -0.0005  0.0126
                                            0.0006  0.0013
    31. (0.00264) RY*( 2) C   1           s(  0.59%)p99.99( 99.41%)
                                            0.0000 -0.0005  0.0564  0.0513  0.0100
                                           -0.0535 -0.8424  0.1647  0.1393 -0.0288
                                           -0.4581  0.1334  0.0790 -0.0011 -0.0205
                                            0.0062  0.0022
    32. (0.00094) RY*( 3) C   1           s(  0.06%)p99.99( 99.94%)
                                            0.0000  0.0004  0.0195  0.0126  0.0035
                                           -0.0005  0.0267  0.0077 -0.0040  0.0008
                                           -0.0001  0.0105 -0.0008  0.0323 -0.9772
                                           -0.1848 -0.0921
    33. (0.00034) RY*( 4) C   1           s( 95.89%)p 0.04(  4.11%)
                                            0.0000  0.0063  0.9790 -0.0146 -0.0145
                                           -0.0141  0.0650 -0.0525  0.0730  0.0324
                                           -0.0180  0.0284 -0.1610 -0.0017  0.0180
                                            0.0139  0.0015
    34. (0.00017) RY*( 5) C   1           s(  2.02%)p48.39( 97.98%)
                                            0.0000 -0.0005  0.0228  0.1379  0.0265
                                            0.0102  0.0870  0.7049 -0.5184  0.0065
                                            0.0238  0.3859 -0.2378  0.0000  0.0151
                                            0.0112 -0.0053
    35. (0.00008) RY*( 6) C   1           s( 53.97%)p 0.85( 46.03%)
    36. (0.00005) RY*( 7) C   1           s( 28.95%)p 2.45( 71.05%)
    37. (0.00001) RY*( 8) C   1           s(  0.59%)p99.99( 99.41%)
    38. (0.00001) RY*( 9) C   1           s( 14.56%)p 5.87( 85.44%)
    39. (0.00000) RY*(10) C   1           s( 98.38%)p 0.02(  1.62%)
    40. (0.00001) RY*(11) C   1           s(  3.76%)p25.62( 96.24%)
    41. (0.00000) RY*(12) C   1           s(  0.07%)p99.99( 99.93%)
    42. (0.00689) RY*( 1) C   2           s(  0.70%)p99.99( 99.30%)
                                            0.0000  0.0173  0.0240  0.0782 -0.0011
                                            0.0043 -0.7431  0.0027 -0.0073  0.0346
                                           -0.6615  0.0177 -0.0159 -0.0019  0.0360
                                           -0.0022  0.0091
    43. (0.00328) RY*( 2) C   2           s(  0.48%)p99.99( 99.52%)
                                            0.0000 -0.0098  0.0141  0.0659  0.0124
                                           -0.0509 -0.6433  0.1475  0.0756  0.0202
                                            0.7320 -0.1045 -0.0124 -0.0043  0.0584
                                            0.0214  0.0123
    44. (0.00127) RY*( 3) C   2           s(  0.18%)p99.99( 99.82%)
                                            0.0000  0.0016  0.0415 -0.0075  0.0048
                                           -0.0042 -0.0639  0.0355  0.0365  0.0039
                                            0.0198  0.0292 -0.0314  0.0214 -0.9819
                                           -0.1370 -0.0765
    45. (0.00075) RY*( 4) C   2           s( 88.79%)p 0.13( 11.21%)
                                            0.0000  0.0066  0.9397 -0.0535  0.0455
                                            0.0180  0.0301  0.1662 -0.1899  0.0267
                                            0.0049  0.0426 -0.0351 -0.0007  0.0664
                                           -0.1971  0.0122
    46. (0.00018) RY*( 5) C   2           s( 38.15%)p 1.62( 61.85%)
                                            0.0000  0.0011 -0.1147  0.6067 -0.0143
                                            0.0070  0.0602  0.3443 -0.5902 -0.0089
                                           -0.0053 -0.0446  0.3744  0.0007 -0.0449
                                            0.0614 -0.0006
    47. (0.00012) RY*( 6) C   2           s(  4.11%)p23.32( 95.89%)
                                            0.0000 -0.0085  0.1509  0.1329 -0.0250
                                           -0.0086 -0.0766 -0.8789 -0.2509  0.0051
                                            0.0927 -0.2296  0.2119 -0.0022 -0.0567
                                            0.0659  0.0618
    48. (0.00008) RY*( 7) C   2           s( 33.74%)p 1.96( 66.26%)
    49. (0.00004) RY*( 8) C   2           s( 12.82%)p 6.80( 87.18%)
    50. (0.00003) RY*( 9) C   2           s( 26.35%)p 2.80( 73.65%)
    51. (0.00000) RY*(10) C   2           s(  6.19%)p15.16( 93.81%)
    52. (0.00000) RY*(11) C   2           s( 88.27%)p 0.13( 11.73%)
    53. (0.00000) RY*(12) C   2           s(  0.16%)p99.99( 99.84%)
    54. (0.00762) RY*( 1) C   3           s(  4.81%)p19.79( 95.19%)
                                            0.0000 -0.0049 -0.1533  0.1567  0.0037
                                           -0.0241  0.9736 -0.0195  0.0515 -0.0001
                                           -0.0012 -0.0002  0.0000  0.0039  0.0056
                                            0.0149 -0.0038
    55. (0.00527) RY*( 2) C   3           s(  0.00%)p 1.00(100.00%)
                                            0.0000 -0.0001  0.0005  0.0005  0.0000
                                           -0.0001  0.0013  0.0000  0.0001  0.0478
                                            0.9955  0.0656 -0.0490  0.0005  0.0001
                                            0.0001  0.0000
    56. (0.00122) RY*( 3) C   3           s(  4.43%)p21.55( 95.57%)
                                            0.0000  0.0024  0.1694  0.1235 -0.0196
                                           -0.0119  0.0079 -0.0442  0.0123  0.0000
                                           -0.0002  0.0020  0.0002  0.0168 -0.9611
                                            0.1500 -0.0830
    57. (0.00032) RY*( 4) C   3           s( 91.02%)p 0.10(  8.98%)
                                            0.0000 -0.0053  0.9342 -0.1930  0.0156
                                           -0.0334  0.1683  0.0534  0.1920  0.0000
                                           -0.0006 -0.0017 -0.0013  0.0003  0.1324
                                           -0.0560  0.0020
    58. (0.00014) RY*( 5) C   3           s(  0.02%)p99.99( 99.98%)
                                            0.0000  0.0000  0.0013  0.0146 -0.0004
                                           -0.0001 -0.0022  0.0001 -0.0010  0.0050
                                            0.0074 -0.6704 -0.7418  0.0005  0.0008
                                            0.0013 -0.0004
    59. (0.00010) RY*( 6) C   3           s( 95.37%)p 0.05(  4.63%)
    60. (0.00006) RY*( 7) C   3           s(  2.28%)p42.85( 97.72%)
    61. (0.00001) RY*( 8) C   3           s(  0.01%)p 1.00( 99.99%)
    62. (0.00001) RY*( 9) C   3           s( 98.82%)p 0.01(  1.18%)
    63. (0.00001) RY*(10) C   3           s(  2.67%)p36.45( 97.33%)
    64. (0.00001) RY*(11) C   3           s(  0.40%)p99.99( 99.60%)
    65. (0.00000) RY*(12) C   3           s(  0.08%)p99.99( 99.92%)
    66. (0.00689) RY*( 1) C   4           s(  0.70%)p99.99( 99.30%)
                                            0.0000  0.0173  0.0235  0.0781 -0.0011
                                            0.0042 -0.7432  0.0026 -0.0072 -0.0346
                                            0.6616 -0.0179  0.0159 -0.0030  0.0329
                                           -0.0022  0.0089
    67. (0.00328) RY*( 2) C   4           s(  0.48%)p99.99( 99.52%)
                                            0.0000 -0.0099  0.0132  0.0658  0.0124
                                           -0.0510 -0.6438  0.1475  0.0757 -0.0202
                                           -0.7320  0.1041  0.0123 -0.0044  0.0527
                                            0.0216  0.0121
    68. (0.00117) RY*( 3) C   4           s(  0.34%)p99.99( 99.66%)
                                            0.0000  0.0017  0.0570 -0.0110  0.0058
                                           -0.0037 -0.0573  0.0416  0.0343 -0.0041
                                           -0.0173 -0.0301  0.0343  0.0317 -0.9787
                                           -0.1510 -0.0796
    69. (0.00075) RY*( 4) C   4           s( 88.69%)p 0.13( 11.31%)
                                            0.0000  0.0066  0.9391 -0.0531  0.0452
                                            0.0181  0.0296  0.1641 -0.1916 -0.0266
                                           -0.0052 -0.0417  0.0338 -0.0020  0.0852
                                           -0.1928  0.0144
    70. (0.00018) RY*( 5) C   4           s( 38.25%)p 1.61( 61.75%)
                                            0.0000  0.0011 -0.1158  0.6073 -0.0144
                                            0.0070  0.0607  0.3480 -0.5887  0.0089
                                            0.0058  0.0442 -0.3718  0.0009 -0.0466
                                            0.0597 -0.0022
    71. (0.00012) RY*( 6) C   4           s(  4.02%)p23.86( 95.98%)
                                            0.0000 -0.0085  0.1485  0.1321 -0.0253
                                           -0.0087 -0.0769 -0.8765 -0.2549 -0.0051
                                           -0.0927  0.2310 -0.2149 -0.0007 -0.0631
                                            0.0678  0.0617
    72. (0.00008) RY*( 7) C   4           s( 33.80%)p 1.96( 66.20%)
    73. (0.00004) RY*( 8) C   4           s( 12.73%)p 6.86( 87.27%)
    74. (0.00003) RY*( 9) C   4           s( 26.22%)p 2.81( 73.78%)
    75. (0.00000) RY*(10) C   4           s(  6.23%)p15.05( 93.77%)
    76. (0.00000) RY*(11) C   4           s( 88.30%)p 0.13( 11.70%)
    77. (0.00000) RY*(12) C   4           s(  0.18%)p99.99( 99.82%)
    78. (0.00648) RY*( 1) C   5           s(  1.10%)p89.60( 98.90%)
                                            0.0000  0.0199 -0.0577  0.0855  0.0006
                                           -0.0166  0.4732 -0.0414  0.0318 -0.0236
                                            0.8718 -0.0192  0.0308 -0.0005  0.0126
                                            0.0006  0.0013
    79. (0.00264) RY*( 2) C   5           s(  0.60%)p99.99( 99.40%)
                                            0.0000 -0.0005  0.0575  0.0514  0.0100
                                           -0.0535 -0.8421  0.1647  0.1393  0.0288
                                            0.4585 -0.1331 -0.0789 -0.0014 -0.0216
                                            0.0062  0.0021
    80. (0.00091) RY*( 3) C   5           s(  0.08%)p99.99( 99.92%)
                                            0.0000  0.0004  0.0239  0.0141  0.0039
                                           -0.0007  0.0278  0.0070 -0.0045 -0.0010
                                           -0.0002 -0.0081  0.0006  0.0351 -0.9783
                                           -0.1774 -0.0918
    81. (0.00034) RY*( 4) C   5           s( 95.84%)p 0.04(  4.16%)
                                            0.0000  0.0063  0.9787 -0.0149 -0.0147
                                           -0.0141  0.0655 -0.0545  0.0744 -0.0324
                                            0.0175 -0.0270  0.1607 -0.0024  0.0222
                                            0.0147  0.0020
    82. (0.00017) RY*( 5) C   5           s(  2.05%)p47.82( 97.95%)
                                            0.0000 -0.0005  0.0254  0.1384  0.0262
                                            0.0101  0.0869  0.7043 -0.5185 -0.0066
                                           -0.0238 -0.3861  0.2386  0.0001  0.0145
                                            0.0110 -0.0056
    83. (0.00008) RY*( 6) C   5           s( 54.22%)p 0.84( 45.78%)
    84. (0.00005) RY*( 7) C   5           s( 28.78%)p 2.48( 71.22%)
    85. (0.00001) RY*( 8) C   5           s(  0.59%)p99.99( 99.41%)
    86. (0.00001) RY*( 9) C   5           s( 14.42%)p 5.93( 85.58%)
    87. (0.00000) RY*(10) C   5           s( 98.41%)p 0.02(  1.59%)
    88. (0.00001) RY*(11) C   5           s(  3.77%)p25.53( 96.23%)
    89. (0.00000) RY*(12) C   5           s(  0.08%)p99.99( 99.92%)
    90. (0.00621) RY*( 1) C   6           s(  1.57%)p62.55( 98.43%)
                                            0.0000 -0.0182  0.1231 -0.0025  0.0159
                                            0.0271 -0.9909  0.0040 -0.0303  0.0000
                                           -0.0001  0.0000  0.0001  0.0008 -0.0252
                                            0.0001 -0.0014
    91. (0.00263) RY*( 2) C   6           s(  0.00%)p 1.00(100.00%)
                                            0.0000  0.0000  0.0004  0.0000  0.0000
                                            0.0000  0.0002  0.0002  0.0001 -0.0601
                                           -0.9548  0.2522  0.1455 -0.0001 -0.0006
                                            0.0000  0.0000
    92. (0.00092) RY*( 3) C   6           s(  0.21%)p99.99( 99.79%)
                                            0.0000  0.0003 -0.0142  0.0432  0.0046
                                           -0.0003  0.0233 -0.0136  0.0011  0.0000
                                            0.0002 -0.0018  0.0005  0.0327 -0.9831
                                           -0.1259 -0.1175
    93. (0.00026) RY*( 4) C   6           s(  0.01%)p 1.00( 99.99%)
                                            0.0000  0.0000  0.0089 -0.0020 -0.0008
                                           -0.0003  0.0010  0.0010  0.0019 -0.0160
                                           -0.1543 -0.8641  0.4788 -0.0004  0.0015
                                            0.0002  0.0002
    94. (0.00024) RY*( 5) C   6           s( 94.05%)p 0.06(  5.95%)
                                            0.0000  0.0044  0.9483 -0.1858 -0.0820
                                           -0.0343  0.1114  0.1113  0.1811  0.0001
                                            0.0019  0.0080 -0.0045 -0.0005 -0.0219
                                            0.0103 -0.0036
    95. (0.00009) RY*( 6) C   6           s( 61.03%)p 0.64( 38.97%)
    96. (0.00003) RY*( 7) C   6           s( 19.42%)p 4.15( 80.58%)
    97. (0.00000) RY*( 8) C   6           s( 25.42%)p 2.93( 74.58%)
    98. (0.00001) RY*( 9) C   6           s(  0.00%)p 1.00(100.00%)
    99. (0.00000) RY*(10) C   6           s( 98.22%)p 0.02(  1.78%)
   100. (0.00000) RY*(11) C   6           s(  0.02%)p99.99( 99.98%)
   101. (0.00000) RY*(12) C   6           s(  0.00%)p 1.00(100.00%)
   102. (0.00070) RY*( 1) H   7           s(100.00%)
                                           -0.0010  1.0000  0.0016  0.0001
   103. (0.00017) RY*( 2) H   7           s(100.00%)
                                           -0.0011 -0.0016  1.0000  0.0007
   104. (0.00003) RY*( 3) H   7           s(100.00%)
   105. (0.00079) RY*( 1) H   8           s(100.00%)
                                           -0.0017  1.0000 -0.0015  0.0017
   106. (0.00025) RY*( 2) H   8           s(100.00%)
                                            0.0006  0.0015  1.0000 -0.0033
   107. (0.00012) RY*( 3) H   8           s(100.00%)
                                           -0.0009 -0.0017  0.0033  1.0000
   108. (0.00079) RY*( 1) H   9           s(100.00%)
                                           -0.0017  1.0000 -0.0015  0.0017
   109. (0.00025) RY*( 2) H   9           s(100.00%)
                                            0.0006  0.0015  1.0000 -0.0032
   110. (0.00012) RY*( 3) H   9           s(100.00%)
                                           -0.0009 -0.0017  0.0032  1.0000
   111. (0.00071) RY*( 1) H  10           s(100.00%)
                                           -0.0010  1.0000  0.0016  0.0001
   112. (0.00017) RY*( 2) H  10           s(100.00%)
                                           -0.0011 -0.0016  1.0000  0.0007
   113. (0.00003) RY*( 3) H  10           s(100.00%)
   114. (0.00069) RY*( 1) H  11           s(100.00%)
                                           -0.0011  1.0000  0.0019  0.0000
   115. (0.00016) RY*( 2) H  11           s(100.00%)
                                           -0.0011 -0.0019  1.0000 -0.0001
   116. (0.00002) RY*( 3) H  11           s(100.00%)
   117. (0.00175) RY*( 1) S  12           s(  0.00%)p 1.00(100.00%)
                                            0.0000  0.0000  0.0000  0.0007  0.0000
                                            0.0000  0.0000  0.0000  0.0000 -0.0006
                                           -0.0002  0.0000  0.0000  0.0000  0.0416
                                           -0.9865  0.0827  0.1347  0.0052  0.0000
                                            0.0001 -0.0009 -0.0003  0.0000  0.0000
   118. (0.00086) RY*( 2) S  12           s( 28.94%)p 2.46( 71.06%)
                                            0.0000  0.0000 -0.0008  0.5357  0.0443
                                            0.0203 -0.0028  0.0000  0.0055 -0.5451
                                           -0.0816 -0.0050 -0.0073  0.0000  0.0000
                                            0.0013  0.0000 -0.0004  0.0000  0.0000
                                            0.0217 -0.5842 -0.2542  0.0115  0.0141
   119. (0.00041) RY*( 3) S  12           s( 30.11%)p 2.32( 69.89%)
                                            0.0000  0.0000 -0.0064 -0.3733  0.4018
                                           -0.0151  0.0034  0.0000 -0.0673 -0.7048
                                           -0.2357  0.1251 -0.0155  0.0000  0.0000
                                           -0.0001  0.0002  0.0000  0.0000  0.0000
                                            0.0234  0.2883  0.2049  0.0147 -0.0173
[...]
  18. CR (   1) C   2                /105. RY*(   1) H   8                    0.51   12.25    0.071
  18. CR (   1) C   2                /138. BD*(   1) C   1 - C   6            0.72   11.90    0.083
  18. CR (   1) C   2                /142. BD*(   1) C   3 - C   4            0.89   11.90    0.093
  18. CR (   1) C   2                /144. BD*(   1) C   3 - S  12            1.10   11.40    0.100
  19. CR (   1) C   3                / 43. RY*(   2) C   2                    2.01   12.21    0.140
  19. CR (   1) C   3                / 67. RY*(   2) C   4                    2.00   12.21    0.140
  19. CR (   1) C   3                /136. BD*(   1) C   1 - C   2            0.69   11.95    0.081
  19. CR (   1) C   3                /140. BD*(   1) C   2 - C   3            0.63   11.95    0.078
  19. CR (   1) C   3                /142. BD*(   1) C   3 - C   4            0.63   11.95    0.078
  19. CR (   1) C   3                /144. BD*(   1) C   3 - S  12            2.25   11.46    0.144
  19. CR (   1) C   3                /145. BD*(   1) C   4 - C   5            0.69   11.95    0.081
  20. CR (   1) C   4                / 54. RY*(   1) C   3                    0.54   12.15    0.072
  20. CR (   1) C   4                / 55. RY*(   2) C   3                    2.58   12.00    0.157
  20. CR (   1) C   4                / 79. RY*(   2) C   5                    1.74   12.38    0.131
  20. CR (   1) C   4                /108. RY*(   1) H   9                    0.51   12.25    0.071
  20. CR (   1) C   4                /140. BD*(   1) C   2 - C   3            0.89   11.90    0.093
  20. CR (   1) C   4                /144. BD*(   1) C   3 - S  12            1.09   11.40    0.100
  20. CR (   1) C   4                /147. BD*(   1) C   5 - C   6            0.72   11.90    0.083
  21. CR (   1) C   5                / 66. RY*(   1) C   4                    0.56   12.21    0.074
  21. CR (   1) C   5                / 67. RY*(   2) C   4                    1.36   12.16    0.115
  21. CR (   1) C   5                / 91. RY*(   2) C   6                    1.71   12.36    0.130
  21. CR (   1) C   5                /138. BD*(   1) C   1 - C   6            0.70   11.90    0.082
  21. CR (   1) C   5                /142. BD*(   1) C   3 - C   4            0.75   11.90    0.085
  22. CR (   1) C   6                / 31. RY*(   2) C   1                    1.62   12.39    0.127
  22. CR (   1) C   6                / 79. RY*(   2) C   5                    1.62   12.39    0.127
  22. CR (   1) C   6                /136. BD*(   1) C   1 - C   2            0.71   11.90    0.082
  22. CR (   1) C   6                /145. BD*(   1) C   4 - C   5            0.71   11.90    0.082
  24. CR (   2) S  12                / 54. RY*(   1) C   3                    1.11   10.99    0.099
  24. CR (   2) S  12                /133. RY*(   1) H  13                    0.66   10.56    0.074
  24. CR (   2) S  12                /140. BD*(   1) C   2 - C   3            0.66   10.74    0.075
  24. CR (   2) S  12                /142. BD*(   1) C   3 - C   4            0.66   10.74    0.075
  28. LP (   1) S  12                / 54. RY*(   1) C   3                    0.60    1.87    0.030
  28. LP (   1) S  12                /140. BD*(   1) C   2 - C   3            1.44    1.62    0.043
  28. LP (   1) S  12                /142. BD*(   1) C   3 - C   4            1.43    1.62    0.043
  28. LP (   1) S  12                /143. BD*(   2) C   3 - C   4            1.64    0.97    0.039
  29. LP (   2) S  12                / 55. RY*(   2) C   3                    0.68    1.28    0.026
  29. LP (   2) S  12                /136. BD*(   1) C   1 - C   2            0.59    1.17    0.023
  29. LP (   2) S  12                /140. BD*(   1) C   2 - C   3            5.04    1.17    0.068
  29. LP (   2) S  12                /142. BD*(   1) C   3 - C   4            5.06    1.17    0.069
  29. LP (   2) S  12                /145. BD*(   1) C   4 - C   5            0.59    1.17    0.023
 137. BD*(   2) C   1 - C   2        / 32. RY*(   3) C   1                    3.94    0.38    0.087
 137. BD*(   2) C   1 - C   2        / 40. RY*(  11) C   1                    0.62    0.49    0.039
 137. BD*(   2) C   1 - C   2        / 44. RY*(   3) C   2                    4.11    0.41    0.091
 137. BD*(   2) C   1 - C   2        / 92. RY*(   3) C   6                    0.56    0.40    0.033
 143. BD*(   2) C   3 - C   4        / 44. RY*(   3) C   2                    0.95    0.43    0.042
 143. BD*(   2) C   3 - C   4        / 56. RY*(   3) C   3                    2.21    0.48    0.068
 143. BD*(   2) C   3 - C   4        / 68. RY*(   3) C   4                    6.01    0.43    0.106
 143. BD*(   2) C   3 - C   4        / 80. RY*(   3) C   5                    0.67    0.39    0.034
 143. BD*(   2) C   3 - C   4        /137. BD*(   2) C   1 - C   2          400.56    0.02    0.120
 143. BD*(   2) C   3 - C   4        /148. BD*(   2) C   5 - C   6          466.04    0.01    0.125
 143. BD*(   2) C   3 - C   4        /151. BD*(   1) S  12 - H  13            1.64    0.17    0.035
 148. BD*(   2) C   5 - C   6        / 32. RY*(   3) C   1                    0.55    0.38    0.032
 148. BD*(   2) C   5 - C   6        / 80. RY*(   3) C   5                    4.12    0.38    0.087
 148. BD*(   2) C   5 - C   6        / 88. RY*(  11) C   5                    0.62    0.50    0.039
 148. BD*(   2) C   5 - C   6        / 92. RY*(   3) C   6                    4.21    0.40    0.090
 148. BD*(   2) C   5 - C   6        /100. RY*(  11) C   6                    0.72    0.36    0.035


 Natural Bond Orbitals (Summary):

                                                            Principal Delocalizations
           NBO                        Occupancy    Energy   (geminal,vicinal,remote)
 ====================================================================================
 Molecular unit  1  (C6H6S)
     1. BD (   1) C   1 - C   2          1.97624    -0.92938  144(v),140(g),138(g),150(v)
                                                    55(v),91(v),90(v),54(v)
                                                    141(g),139(g)
     2. BD (   2) C   1 - C   2          1.65304    -0.31670  148(v),143(v),92(v),56(v)
     3. BD (   1) C   1 - C   6          1.98184    -0.93125  147(g),136(g),43(v),149(v)
                                                    141(v),79(v),78(v),139(g)
                                                    150(g),42(v)
     4. BD (   1) C   1 - H   7          1.98296    -0.71017  147(v),140(v),90(v),42(v)
                                                    138(g),136(g),150(v),141(v)
     5. BD (   1) C   2 - C   3          1.98178    -0.95373  142(g),136(g),146(v),139(v)
                                                    66(v),30(v),31(v),141(g)
                                                    67(v)
     6. BD (   1) C   2 - H   8          1.98210    -0.70987  142(v),138(v),54(v),140(g)
                                                    30(v),136(g),139(v)
     7. BD (   1) C   3 - C   4          1.98181    -0.95375  140(g),145(g),141(v),149(v)
                                                    42(v),78(v),79(v),146(g)
                                                    43(v)
     8. BD (   2) C   3 - C   4          1.68173    -0.33502  137(v),148(v),44(v),151(v)
                                                    80(v)
     9. BD (   1) C   3 - S  12          1.98212    -0.76271  145(v),136(v),42(v),66(v)
                                                    146(v),141(v)
    10. BD (   1) C   4 - C   5          1.97619    -0.92932  144(v),142(g),147(g),150(v)
                                                    55(v),91(v),90(v),54(v)
                                                    146(g),149(g)
    11. BD (   1) C   4 - H   9          1.98211    -0.70989  140(v),147(v),54(v),142(g)
                                                    78(v),145(g),149(v)
    12. BD (   1) C   5 - C   6          1.98187    -0.93129  138(g),145(g),67(v),139(v)
                                                    146(v),31(v),30(v),149(g)
                                                    150(g),66(v)
    13. BD (   2) C   5 - C   6          1.65834    -0.31724  143(v),137(v),32(v),68(v)
    14. BD (   1) C   5 - H  10          1.98298    -0.71018  138(v),142(v),90(v),66(v)
                                                    147(g),145(g),150(v),146(v)
    15. BD (   1) C   6 - H  11          1.98319    -0.71188  145(v),136(v),30(v),78(v)
                                                    138(g),147(g),139(v),149(v)
    16. BD (   1) S  12 - H  13          1.98625    -0.69256  143(v),144(g)
    17. CR (   1) C   1                  1.99927   -11.10748  91(v),43(v),140(v),147(v)
                                                    42(v)
    18. CR (   1) C   2                  1.99910   -11.10456  55(v),31(v),144(v),142(v)
                                                    138(v),54(v),105(v)
    19. CR (   1) C   3                  1.99883   -11.15688  144(g),43(v),67(v),136(v)
                                                    145(v),140(g),142(g)
    20. CR (   1) C   4                  1.99910   -11.10454  55(v),79(v),144(v),140(v)
                                                    147(v),54(v),108(v)
    21. CR (   1) C   5                  1.99927   -11.10748  91(v),67(v),142(v),138(v)
                                                    66(v)
    22. CR (   1) C   6                  1.99928   -11.10882  31(v),79(v),136(v),145(v)
    23. CR (   1) S  12                  2.00000   -90.77080   
    24. CR (   2) S  12                  1.99956    -9.94658  54(v),142(v),140(v),133(v)
    25. CR (   3) S  12                  1.99993    -6.65159   
    26. CR (   4) S  12                  1.99999    -6.65114   
    27. CR (   5) S  12                  1.99996    -6.65216   
    28. LP (   1) S  12                  1.98756    -0.82917  143(v),140(v),142(v),54(v)
    29. LP (   2) S  12                  1.97760    -0.37622  142(v),140(v),55(v),145(r)
                                                    136(r)
    30. RY*(   1) C   1                  0.00645     1.17409   
    31. RY*(   2) C   1                  0.00253     1.27897   
    32. RY*(   3) C   1                  0.00093     0.53528   
    33. RY*(   4) C   1                  0.00031     0.93975   
    34. RY*(   5) C   1                  0.00017     1.01907   
    35. RY*(   6) C   1                  0.00007     1.43855   
    36. RY*(   7) C   1                  0.00004     1.68396   
    37. RY*(   8) C   1                  0.00002     5.18223   
    38. RY*(   9) C   1                  0.00001     2.17013   
    39. RY*(  10) C   1                  0.00000    20.05764   
    40. RY*(  11) C   1                  0.00001     0.64611   
    41. RY*(  12) C   1                  0.00000     3.01905   
    42. RY*(   1) C   2                  0.00694     1.10362   
    43. RY*(   2) C   2                  0.00302     1.05588   
    44. RY*(   3) C   2                  0.00118     0.56203   
    45. RY*(   4) C   2                  0.00063     1.05685   
    46. RY*(   5) C   2                  0.00017     2.24836   
    47. RY*(   6) C   2                  0.00005     2.97469   
    48. RY*(   7) C   2                  0.00006     1.88222   
    49. RY*(   8) C   2                  0.00005     0.57521   
    50. RY*(   9) C   2                  0.00001     2.07553   
    51. RY*(  10) C   2                  0.00000    21.75498   
    52. RY*(  11) C   2                  0.00001     0.92149   
    53. RY*(  12) C   2                  0.00000     3.07021   
    54. RY*(   1) C   3                  0.00745     1.04111   
    55. RY*(   2) C   3                  0.00574     0.89881   
    56. RY*(   3) C   3                  0.00100     0.61784   
    57. RY*(   4) C   3                  0.00036     1.05257   
    58. RY*(   5) C   3                  0.00020     0.78767   
    59. RY*(   6) C   3                  0.00007     2.31398   
    60. RY*(   7) C   3                  0.00006     0.55602   
    61. RY*(   8) C   3                  0.00002     2.83142   
    62. RY*(   9) C   3                  0.00002     2.11507   
    63. RY*(  10) C   3                  0.00001     2.19968   
    64. RY*(  11) C   3                  0.00000    22.18768   
    65. RY*(  12) C   3                  0.00000     3.03810   
    66. RY*(   1) C   4                  0.00695     1.10355   
    67. RY*(   2) C   4                  0.00302     1.05632   
    68. RY*(   3) C   4                  0.00128     0.56409   
    69. RY*(   4) C   4                  0.00063     1.05877   
    70. RY*(   5) C   4                  0.00017     2.25125   
    71. RY*(   6) C   4                  0.00005     2.98070   
    72. RY*(   7) C   4                  0.00006     1.88787   
    73. RY*(   8) C   4                  0.00005     0.56525   
    74. RY*(   9) C   4                  0.00001     2.10020   
    75. RY*(  10) C   4                  0.00000    21.71747   
    76. RY*(  11) C   4                  0.00001     0.92365   
    77. RY*(  12) C   4                  0.00000     3.06990   
    78. RY*(   1) C   5                  0.00645     1.17414   
    79. RY*(   2) C   5                  0.00253     1.27881   
    80. RY*(   3) C   5                  0.00095     0.53047   
    81. RY*(   4) C   5                  0.00031     0.94055   
    82. RY*(   5) C   5                  0.00017     1.01979   
    83. RY*(   6) C   5                  0.00007     1.44314   
    84. RY*(   7) C   5                  0.00004     1.67597   
    85. RY*(   8) C   5                  0.00002     5.19727   
    86. RY*(   9) C   5                  0.00001     2.17183   
    87. RY*(  10) C   5                  0.00000    20.04577   
    88. RY*(  11) C   5                  0.00001     0.64778   
    89. RY*(  12) C   5                  0.00000     3.01910   
    90. RY*(   1) C   6                  0.00602     1.18934   
    91. RY*(   2) C   6                  0.00253     1.24954   
    92. RY*(   3) C   6                  0.00094     0.54850   
    93. RY*(   4) C   6                  0.00026     0.88960   
    94. RY*(   5) C   6                  0.00024     1.14817   
    95. RY*(   6) C   6                  0.00008     2.05687   
    96. RY*(   7) C   6                  0.00003     1.46931   
    97. RY*(   8) C   6                  0.00001     2.34868   
    98. RY*(   9) C   6                  0.00001     2.27208   
    99. RY*(  10) C   6                  0.00000    22.41610   
   100. RY*(  11) C   6                  0.00000     0.50681   
   101. RY*(  12) C   6                  0.00000     3.05322   
   102. RY*(   1) H   7                  0.00069     0.70747   
   103. RY*(   2) H   7                  0.00017     2.50338   
   104. RY*(   3) H   7                  0.00002     0.17353   
   105. RY*(   1) H   8                  0.00069     1.14807   
   106. RY*(   2) H   8                  0.00026     0.92060   
   107. RY*(   3) H   8                  0.00013     1.34634   
   108. RY*(   1) H   9                  0.00069     1.14863   
   109. RY*(   2) H   9                  0.00026     0.91919   
   110. RY*(   3) H   9                  0.00013     1.34721   
   111. RY*(   1) H  10                  0.00069     0.70739   
   112. RY*(   2) H  10                  0.00017     2.50342   
   113. RY*(   3) H  10                  0.00002     0.17356   
   114. RY*(   1) H  11                  0.00066     0.79894   
   115. RY*(   2) H  11                  0.00016     2.36061   
   116. RY*(   3) H  11                  0.00002     0.21197   
   117. RY*(   1) S  12                  0.00143     0.63512   
   118. RY*(   2) S  12                  0.00054     0.43795   
   119. RY*(   3) S  12                  0.00037     0.57487   
   120. RY*(   4) S  12                  0.00014     0.82395   
   121. RY*(   5) S  12                  0.00002     0.49849   
   122. RY*(   6) S  12                  0.00002     0.28565   
   123. RY*(   7) S  12                  0.00002     1.88310   
   124. RY*(   8) S  12                  0.00000    18.22537   
   125. RY*(   9) S  12                  0.00000    14.77477   
   126. RY*(  10) S  12                  0.00000     0.19961   
   127. RY*(  11) S  12                  0.00001     2.12437   
   128. RY*(  12) S  12                  0.00000    18.03067   
   129. RY*(  13) S  12                  0.00000   185.55608   
   130. RY*(  14) S  12                  0.00000     0.57257   
   131. RY*(  15) S  12                  0.00000     2.26257   
   132. RY*(  16) S  12                  0.00000    18.03473   
   133. RY*(   1) H  13                  0.00070     0.61757   
   134. RY*(   2) H  13                  0.00019     0.93025   
   135. RY*(   3) H  13                  0.00008     1.80810   
   136. BD*(   1) C   1 - C   2          0.01610     0.79324   
   137. BD*(   2) C   1 - C   2          0.31995     0.15191  148(v),143(v),44(g),32(g)
                                                    40(g),92(v)
   138. BD*(   1) C   1 - C   6          0.01401     0.79320   
   139. BD*(   1) C   1 - H   7          0.01072     0.65985   
   140. BD*(   1) C   2 - C   3          0.02403     0.79079   
   141. BD*(   1) C   2 - H   8          0.01183     0.65963   
   142. BD*(   1) C   3 - C   4          0.02406     0.79074   
   143. BD*(   2) C   3 - C   4          0.36530     0.13637  148(v),137(v),68(g),56(g)
                                                    151(v),44(v),80(v)
   144. BD*(   1) C   3 - S  12          0.02310     0.30006   
   145. BD*(   1) C   4 - C   5          0.01609     0.79326   
   146. BD*(   1) C   4 - H   9          0.01183     0.65963   
   147. BD*(   1) C   5 - C   6          0.01402     0.79319   
   148. BD*(   2) C   5 - C   6          0.32694     0.15102  137(v),143(v),92(g),80(g)
                                                    100(g),88(g),32(v)
   149. BD*(   1) C   5 - H  10          0.01072     0.65984   
   150. BD*(   1) C   6 - H  11          0.01077     0.66066   
   151. BD*(   1) S  12 - H  13          0.00776     0.30994   
       -------------------------------
              Total Lewis   56.71398  ( 97.7827%)
        Valence non-Lewis    1.20723  (  2.0814%)
        Rydberg non-Lewis    0.07879  (  0.1359%)
       -------------------------------
            Total unit  1   58.00000  (100.0000%)
           Charge unit  1    0.00000
 1|1|UNPC-DESKTOP-2TIS01M|FOpt|RMP2-FC|6-311++G|C6H6S1|APPLE|19-Aug-202
 0|0||# opt mp2/6-311++g pop=nbo geom=connectivity||Title Card Required
 ||0,1|C,-5.4861794675,-0.8448600209,-0.0237456701|C,-4.0779806387,-0.8
 456568102,0.0114804986|C,-3.3780665038,0.373370346,-0.0474762734|C,-4.
 0779937051,1.5924483643,0.0100274623|C,-5.4862001896,1.5915994071,-0.0
 250997667|C,-6.1926851577,0.3733847503,0.0058066876|H,-6.0249913708,-1
 .7886846629,0.015027188|H,-3.5257766994,-1.7813209468,-0.0011369185|H,
 -3.5257897444,2.5280919703,-0.0038568802|H,-6.025017329,2.5354649808,0
 .012589297|H,-7.2798880141,0.3733590014,-0.0179779179|S,-1.5106742228,
 0.3736549865,0.0903977957|H,-1.258093817,0.3705613741,-1.2733769325||V
 ersion=IA32W-G09RevC.01|State=1-A|HF=-628.1535864|MP2=-628.7853848|RMS
 D=1.693e-009|RMSF=7.629e-005|Dipole=-0.5910549,-0.0009619,-0.4199303|P
 G=C01 [X(C6H6S1)]||@


 YOU ARE IN A MAZE OF TWISTY LITTLE PASSAGES.
 Job cpu time:  0 days  0 hours 14 minutes 43.0 seconds.
 File lengths (MBytes):  RWF=     20 Int=      0 D2E=      0 Chk=      3 Scr=      1
 Normal termination of Gaussian 09 at Wed Aug 19 23:55:52 2020.
