 Entering Link 1 = C:\G09W\l1.exe PID=      5672.
  
 Copyright (c) 1988,1990,1992,1993,1995,1998,2003,2009,2011,
            Gaussian, Inc.  All Rights Reserved.
  
 This is part of the Gaussian(R) 09 program.  It is based on
 the Gaussian(R) 03 system (copyright 2003, Gaussian, Inc.),
 the Gaussian(R) 98 system (copyright 1998, Gaussian, Inc.),
 the Gaussian(R) 94 system (copyright 1995, Gaussian, Inc.),
 the Gaussian 92(TM) system (copyright 1992, Gaussian, Inc.),
 the Gaussian 90(TM) system (copyright 1990, Gaussian, Inc.),
 the Gaussian 88(TM) system (copyright 1988, Gaussian, Inc.),
 the Gaussian 86(TM) system (copyright 1986, Carnegie Mellon
 University), and the Gaussian 82(TM) system (copyright 1983,
 Carnegie Mellon University). Gaussian is a federally registered
 trademark of Gaussian, Inc.
  
 This software contains proprietary and confidential information,
 including trade secrets, belonging to Gaussian, Inc.
  
 This software is provided under written license and may be
 used, copied, transmitted, or stored only in accord with that
 written license.
  
 The following legend is applicable only to US Government
 contracts under FAR:
  
                    RESTRICTED RIGHTS LEGEND
  
 Use, reproduction and disclosure by the US Government is
 subject to restrictions as set forth in subparagraphs (a)
 and (c) of the Commercial Computer Software - Restricted
 Rights clause in FAR 52.227-19.
  
 Gaussian, Inc.
 340 Quinnipiac St., Bldg. 40, Wallingford CT 06492
  
  
 ---------------------------------------------------------------
 Warning -- This program may not be used in any manner that
 competes with the business of Gaussian, Inc. or will provide
 assistance to any competitor of Gaussian, Inc.  The licensee
 of this program is prohibited from giving any competitor of
 Gaussian, Inc. access to this program.  By using this program,
 the user acknowledges that Gaussian, Inc. is engaged in the
 business of creating and licensing software in the field of
 computational chemistry and represents and warrants to the
 licensee that it is not a competitor of Gaussian, Inc. and that
 it will not use this program in any manner prohibited above.
 ---------------------------------------------------------------
  

 Cite this work as:
 Gaussian 09, Revision C.01,
 M. J. Frisch, G. W. Trucks, H. B. Schlegel, G. E. Scuseria, 
 M. A. Robb, J. R. Cheeseman, G. Scalmani, V. Barone, B. Mennucci, 
 G. A. Petersson, H. Nakatsuji, M. Caricato, X. Li, H. P. Hratchian, 
 A. F. Izmaylov, J. Bloino, G. Zheng, J. L. Sonnenberg, M. Hada, 
 M. Ehara, K. Toyota, R. Fukuda, J. Hasegawa, M. Ishida, T. Nakajima, 
 Y. Honda, O. Kitao, H. Nakai, T. Vreven, J. A. Montgomery, Jr., 
 J. E. Peralta, F. Ogliaro, M. Bearpark, J. J. Heyd, E. Brothers, 
 K. N. Kudin, V. N. Staroverov, T. Keith, R. Kobayashi, J. Normand, 
 K. Raghavachari, A. Rendell, J. C. Burant, S. S. Iyengar, J. Tomasi, 
 M. Cossi, N. Rega, J. M. Millam, M. Klene, J. E. Knox, J. B. Cross, 
 V. Bakken, C. Adamo, J. Jaramillo, R. Gomperts, R. E. Stratmann, 
 O. Yazyev, A. J. Austin, R. Cammi, C. Pomelli, J. W. Ochterski, 
 R. L. Martin, K. Morokuma, V. G. Zakrzewski, G. A. Voth, 
 P. Salvador, J. J. Dannenberg, S. Dapprich, A. D. Daniels, 
 O. Farkas, J. B. Foresman, J. V. Ortiz, J. Cioslowski, 
 and D. J. Fox, Gaussian, Inc., Wallingford CT, 2010.
 
 ******************************************
 Gaussian 09:  IA32W-G09RevC.01 23-Sep-2011
                20-Aug-2020 
 ******************************************
 %chk=C:\G09W\Scratch\C.chk
 --------------------------------------------
 # opt mp2/6-311++g pop=nbo geom=connectivity
 --------------------------------------------
 1/18=20,19=15,38=1,57=2/1,3;
 2/9=110,12=2,17=6,18=5,40=1/2;
 3/5=4,6=6,7=1010,11=9,16=1,25=1,30=1,71=1/1,2,3;
 4//1;
 5/5=2,38=5/2;
 8/6=4,10=2/1;
 9/15=2,16=-3/6;
 10/5=1/2;
 6/7=2,8=2,9=2,10=2/1,7;
 7/12=2/1,2,3,16;
 1/18=20,19=15/3(2);
 2/9=110/2;
 99//99;
 2/9=110/2;
 3/5=4,6=6,7=1010,11=9,16=1,25=1,30=1,71=1/1,2,3;
 4/5=5,16=3/1;
 5/5=2,38=5/2;
 8/6=4,10=2/1;
 9/15=2,16=-3/6;
 10/5=1/2;
 7/12=2/1,2,3,16;
 1/18=20,19=15/3(-8);
 2/9=110/2;
 6/7=2,8=2,9=2,10=2/1,7;
 99//99;
 -------------------
 Title Card Required
 -------------------
 Charge =  0 Multiplicity = 1
 Symbolic Z-Matrix:
 C                    -3.96069  -0.27302   0. 
 C                    -2.44559  -0.27302   0. 
 C                    -1.89366   1.13806   0. 
 C                    -2.44332   1.9426    1.16066 
 C                    -3.95844   1.94326   1.16017 
 C                    -4.51124   0.53264   1.15888 
 H                    -2.07304  -0.81865   0.90656 
 H                    -2.07029  -0.82288  -0.90191 
 H                    -4.33338   0.16001  -0.96539 
 H                    -4.33629  -1.32724   0.0635 
 H                    -2.07078   1.50775   2.12527 
 H                    -2.0673    2.99673   1.09867 
 H                    -4.33376   2.49269   2.06229 
 H                    -4.3303    2.48986   0.25385 
 H                    -4.24524   0.02691   2.12419 
 H                    -5.62979   0.5677    1.09394 
 H                    -2.16227   1.64369  -0.96455 
 S                    -0.11726   1.08408   0.09959 
 H                     0.39772   1.64285  -0.96749 
 

 GradGradGradGradGradGradGradGradGradGradGradGradGradGradGradGradGradGrad
 Berny optimization.
 Initialization pass.
                           ----------------------------
                           !    Initial Parameters    !
                           ! (Angstroms and Degrees)  !
 --------------------------                            --------------------------
 ! Name  Definition              Value          Derivative Info.                !
 --------------------------------------------------------------------------------
 ! R1    R(1,2)                  1.5151         estimate D2E/DX2                !
 ! R2    R(1,6)                  1.515          estimate D2E/DX2                !
 ! R3    R(1,9)                  1.1218         estimate D2E/DX2                !
 ! R4    R(1,10)                 1.1209         estimate D2E/DX2                !
 ! R5    R(2,3)                  1.5152         estimate D2E/DX2                !
 ! R6    R(2,7)                  1.1218         estimate D2E/DX2                !
 ! R7    R(2,8)                  1.121          estimate D2E/DX2                !
 ! R8    R(3,4)                  1.5154         estimate D2E/DX2                !
 ! R9    R(3,17)                 1.1217         estimate D2E/DX2                !
 ! R10   R(3,18)                 1.78           estimate D2E/DX2                !
 ! R11   R(4,5)                  1.5151         estimate D2E/DX2                !
 ! R12   R(4,11)                 1.1218         estimate D2E/DX2                !
 ! R13   R(4,12)                 1.1209         estimate D2E/DX2                !
 ! R14   R(5,6)                  1.5151         estimate D2E/DX2                !
 ! R15   R(5,13)                 1.121          estimate D2E/DX2                !
 ! R16   R(5,14)                 1.1218         estimate D2E/DX2                !
 ! R17   R(6,15)                 1.1218         estimate D2E/DX2                !
 ! R18   R(6,16)                 1.121          estimate D2E/DX2                !
 ! R19   R(18,19)                1.31           estimate D2E/DX2                !
 ! A1    A(2,1,6)              111.3094         estimate D2E/DX2                !
 ! A2    A(2,1,9)              109.4042         estimate D2E/DX2                !
 ! A3    A(2,1,10)             109.5772         estimate D2E/DX2                !
 ! A4    A(6,1,9)              109.4074         estimate D2E/DX2                !
 ! A5    A(6,1,10)             109.5749         estimate D2E/DX2                !
 ! A6    A(9,1,10)             107.4863         estimate D2E/DX2                !
 ! A7    A(1,2,3)              111.3625         estimate D2E/DX2                !
 ! A8    A(1,2,7)              109.3968         estimate D2E/DX2                !
 ! A9    A(1,2,8)              109.5595         estimate D2E/DX2                !
 ! A10   A(3,2,7)              109.3908         estimate D2E/DX2                !
 ! A11   A(3,2,8)              109.5638         estimate D2E/DX2                !
 ! A12   A(7,2,8)              107.4839         estimate D2E/DX2                !
 ! A13   A(2,3,4)              111.2413         estimate D2E/DX2                !
 ! A14   A(2,3,17)             109.4252         estimate D2E/DX2                !
 ! A15   A(2,3,18)             109.59           estimate D2E/DX2                !
 ! A16   A(4,3,17)             109.4158         estimate D2E/DX2                !
 ! A17   A(4,3,18)             109.586          estimate D2E/DX2                !
 ! A18   A(17,3,18)            107.5042         estimate D2E/DX2                !
 ! A19   A(3,4,5)              111.2657         estimate D2E/DX2                !
 ! A20   A(3,4,11)             109.4111         estimate D2E/DX2                !
 ! A21   A(3,4,12)             109.5868         estimate D2E/DX2                !
 ! A22   A(5,4,11)             109.4233         estimate D2E/DX2                !
 ! A23   A(5,4,12)             109.5746         estimate D2E/DX2                !
 ! A24   A(11,4,12)            107.5            estimate D2E/DX2                !
 ! A25   A(4,5,6)              111.3744         estimate D2E/DX2                !
 ! A26   A(4,5,13)             109.5589         estimate D2E/DX2                !
 ! A27   A(4,5,14)             109.3871         estimate D2E/DX2                !
 ! A28   A(6,5,13)             109.5649         estimate D2E/DX2                !
 ! A29   A(6,5,14)             109.3914         estimate D2E/DX2                !
 ! A30   A(13,5,14)            107.4801         estimate D2E/DX2                !
 ! A31   A(1,6,5)              111.2962         estimate D2E/DX2                !
 ! A32   A(1,6,15)             109.4108         estimate D2E/DX2                !
 ! A33   A(1,6,16)             109.5686         estimate D2E/DX2                !
 ! A34   A(5,6,15)             109.42           estimate D2E/DX2                !
 ! A35   A(5,6,16)             109.5728         estimate D2E/DX2                !
 ! A36   A(15,6,16)            107.4917         estimate D2E/DX2                !
 ! A37   A(3,18,19)            109.5            estimate D2E/DX2                !
 ! D1    D(6,1,2,3)            -55.1928         estimate D2E/DX2                !
 ! D2    D(6,1,2,7)             65.8497         estimate D2E/DX2                !
 ! D3    D(6,1,2,8)           -176.5618         estimate D2E/DX2                !
 ! D4    D(9,1,2,3)             65.8411         estimate D2E/DX2                !
 ! D5    D(9,1,2,7)           -173.1163         estimate D2E/DX2                !
 ! D6    D(9,1,2,8)            -55.5279         estimate D2E/DX2                !
 ! D7    D(10,1,2,3)          -176.5529         estimate D2E/DX2                !
 ! D8    D(10,1,2,7)           -55.5104         estimate D2E/DX2                !
 ! D9    D(10,1,2,8)            62.0781         estimate D2E/DX2                !
 ! D10   D(2,1,6,5)             55.0823         estimate D2E/DX2                !
 ! D11   D(2,1,6,15)           -65.9633         estimate D2E/DX2                !
 ! D12   D(2,1,6,16)           176.4253         estimate D2E/DX2                !
 ! D13   D(9,1,6,5)            -65.9498         estimate D2E/DX2                !
 ! D14   D(9,1,6,15)           173.0046         estimate D2E/DX2                !
 ! D15   D(9,1,6,16)            55.3933         estimate D2E/DX2                !
 ! D16   D(10,1,6,5)           176.4437         estimate D2E/DX2                !
 ! D17   D(10,1,6,15)           55.3981         estimate D2E/DX2                !
 ! D18   D(10,1,6,16)          -62.2133         estimate D2E/DX2                !
 ! D19   D(1,2,3,4)             55.2571         estimate D2E/DX2                !
 ! D20   D(1,2,3,17)           -65.7573         estimate D2E/DX2                !
 ! D21   D(1,2,3,18)           176.5953         estimate D2E/DX2                !
 ! D22   D(7,2,3,4)            -65.7889         estimate D2E/DX2                !
 ! D23   D(7,2,3,17)           173.1966         estimate D2E/DX2                !
 ! D24   D(7,2,3,18)            55.5492         estimate D2E/DX2                !
 ! D25   D(8,2,3,4)            176.6237         estimate D2E/DX2                !
 ! D26   D(8,2,3,17)            55.6092         estimate D2E/DX2                !
 ! D27   D(8,2,3,18)           -62.0382         estimate D2E/DX2                !
 ! D28   D(2,3,4,5)            -55.2366         estimate D2E/DX2                !
 ! D29   D(2,3,4,11)            65.7936         estimate D2E/DX2                !
 ! D30   D(2,3,4,12)          -176.5742         estimate D2E/DX2                !
 ! D31   D(17,3,4,5)            65.7833         estimate D2E/DX2                !
 ! D32   D(17,3,4,11)         -173.1864         estimate D2E/DX2                !
 ! D33   D(17,3,4,12)          -55.5543         estimate D2E/DX2                !
 ! D34   D(18,3,4,5)          -176.5771         estimate D2E/DX2                !
 ! D35   D(18,3,4,11)          -55.5468         estimate D2E/DX2                !
 ! D36   D(18,3,4,12)           62.0853         estimate D2E/DX2                !
 ! D37   D(2,3,18,19)          118.8502         estimate D2E/DX2                !
 ! D38   D(4,3,18,19)         -118.8194         estimate D2E/DX2                !
 ! D39   D(17,3,18,19)           0.0087         estimate D2E/DX2                !
 ! D40   D(3,4,5,6)             55.2381         estimate D2E/DX2                !
 ! D41   D(3,4,5,13)           176.6158         estimate D2E/DX2                !
 ! D42   D(3,4,5,14)           -65.8064         estimate D2E/DX2                !
 ! D43   D(11,4,5,6)           -65.785          estimate D2E/DX2                !
 ! D44   D(11,4,5,13)           55.5927         estimate D2E/DX2                !
 ! D45   D(11,4,5,14)          173.1705         estimate D2E/DX2                !
 ! D46   D(12,4,5,6)           176.5828         estimate D2E/DX2                !
 ! D47   D(12,4,5,13)          -62.0395         estimate D2E/DX2                !
 ! D48   D(12,4,5,14)           55.5383         estimate D2E/DX2                !
 ! D49   D(4,5,6,1)            -55.1527         estimate D2E/DX2                !
 ! D50   D(4,5,6,15)            65.8876         estimate D2E/DX2                !
 ! D51   D(4,5,6,16)          -176.4932         estimate D2E/DX2                !
 ! D52   D(13,5,6,1)          -176.5268         estimate D2E/DX2                !
 ! D53   D(13,5,6,15)          -55.4866         estimate D2E/DX2                !
 ! D54   D(13,5,6,16)           62.1326         estimate D2E/DX2                !
 ! D55   D(14,5,6,1)            65.8893         estimate D2E/DX2                !
 ! D56   D(14,5,6,15)         -173.0704         estimate D2E/DX2                !
 ! D57   D(14,5,6,16)          -55.4512         estimate D2E/DX2                !
 --------------------------------------------------------------------------------
 Trust Radius=3.00D-01 FncErr=1.00D-07 GrdErr=1.00D-07
 Number of steps in this run=    114 maximum allowed number of steps=    114.
 GradGradGradGradGradGradGradGradGradGradGradGradGradGradGradGradGradGrad

                          Input orientation:                          
 ---------------------------------------------------------------------
 Center     Atomic      Atomic             Coordinates (Angstroms)
 Number     Number       Type             X           Y           Z
 ---------------------------------------------------------------------
      1          6           0       -3.960694   -0.273018    0.000000
      2          6           0       -2.445588   -0.273018    0.000000
      3          6           0       -1.893657    1.138060    0.000000
      4          6           0       -2.443320    1.942597    1.160661
      5          6           0       -3.958445    1.943258    1.160172
      6          6           0       -4.511245    0.532637    1.158876
      7          1           0       -2.073039   -0.818652    0.906562
      8          1           0       -2.070294   -0.822877   -0.901910
      9          1           0       -4.333382    0.160011   -0.965385
     10          1           0       -4.336291   -1.327238    0.063502
     11          1           0       -2.070785    1.507752    2.125272
     12          1           0       -2.067297    2.996734    1.098666
     13          1           0       -4.333765    2.492686    2.062286
     14          1           0       -4.330300    2.489859    0.253849
     15          1           0       -4.245241    0.026915    2.124191
     16          1           0       -5.629793    0.567698    1.093938
     17          1           0       -2.162275    1.643693   -0.964546
     18         16           0       -0.117265    1.084080    0.099593
     19          1           0        0.397716    1.642853   -0.967491
 ---------------------------------------------------------------------
                    Distance matrix (angstroms):
                    1          2          3          4          5
     1  C    0.000000
     2  C    1.515106   0.000000
     3  C    2.502755   1.515180   0.000000
     4  C    2.925493   2.501217   1.515435   0.000000
     5  C    2.501576   2.923459   2.501538   1.515125   0.000000
     6  C    1.514985   2.501802   2.925970   2.502859   1.515071
     7  H    2.163981   1.121768   2.163967   2.797529   3.353688
     8  H    2.165502   1.120996   2.165621   3.470042   3.933039
     9  H    1.121775   2.164081   2.800144   3.357085   2.799739
    10  H    1.120931   2.165680   3.471050   3.934326   3.470100
    11  H    3.355545   2.797928   2.164446   1.121761   2.164334
    12  H    3.934882   3.470079   2.166076   1.120911   2.165649
    13  H    3.470061   3.932856   3.470182   2.165481   1.120958
    14  H    2.799024   3.354112   2.798040   2.163908   1.121816
    15  H    2.164050   2.800160   3.358091   2.800919   2.164245
    16  H    2.165501   3.470254   3.934555   3.471082   2.165631
    17  H    2.799722   2.164347   1.121681   2.164448   2.798284
    18  S    4.077202   2.696798   1.780000   2.696933   4.076478
    19  H    4.858223   3.562440   2.537960   3.562353   4.857296
                    6          7          8          9         10
     6  C    0.000000
     7  H    2.799016   0.000000
     8  H    3.470230   1.808479   0.000000
     9  H    2.164017   3.093722   2.468130   0.000000
    10  H    2.165546   2.468141   2.514188   1.808460   0.000000
    11  H    2.800110   2.626293   3.820427   4.060531   4.173797
    12  H    3.471063   3.820223   4.311814   4.176415   4.991656
    13  H    2.165512   4.172714   4.990262   3.822063   4.311260
    14  H    2.163916   4.058018   4.173443   2.629588   3.821845
    15  H    1.121760   2.629841   3.822280   3.093697   2.467480
    16  H    1.120980   3.821986   4.311281   2.467327   2.515100
    17  H    3.355745   3.093889   2.469079   2.629642   3.822258
    18  S    4.553375   2.845460   2.907545   4.445641   4.859623
    19  H    5.463690   3.959256   3.489298   4.958035   5.682887
                   11         12         13         14         15
    11  H    0.000000
    12  H    1.808590   0.000000
    13  H    2.468834   2.513863   0.000000
    14  H    3.093892   2.468161   1.808443   0.000000
    15  H    2.630806   3.822953   2.468136   3.093785   0.000000
    16  H    3.822812   4.311800   2.514551   2.467617   1.808550
    17  H    3.094160   2.469126   3.820716   2.626940   4.061159
    18  S    2.845894   2.908438   4.859548   4.444060   4.717709
    19  H    3.959410   3.489739   5.682312   4.956129   5.807478
                   16         17         18         19
    16  H    0.000000
    17  H    4.173584   0.000000
    18  S    5.625241   2.372261   0.000000
    19  H    6.460364   2.559992   1.310000   0.000000
 Stoichiometry    C6H12S
 Framework group  C1[X(C6H12S)]
 Deg. of freedom    51
 Full point group                 C1      NOp   1
 Largest Abelian subgroup         C1      NOp   1
 Largest concise Abelian subgroup C1      NOp   1
                         Standard orientation:                         
 ---------------------------------------------------------------------
 Center     Atomic      Atomic             Coordinates (Angstroms)
 Number     Number       Type             X           Y           Z
 ---------------------------------------------------------------------
      1          6           0        1.541794   -1.250893    0.202566
      2          6           0        0.066486   -1.250118   -0.142412
      3          6           0       -0.619396    0.000167    0.369567
      4          6           0        0.065565    1.251099   -0.142819
      5          6           0        1.540724    1.250683    0.202884
      6          6           0        2.227142    0.000201   -0.307573
      7          1           0       -0.055812   -1.312657   -1.255739
      8          1           0       -0.423229   -2.155480    0.301583
      9          1           0        1.664195   -1.315397    1.315776
     10          1           0        2.031254   -2.155502   -0.243076
     11          1           0       -0.056652    1.313636   -1.256147
     12          1           0       -0.423997    2.156334    0.301389
     13          1           0        2.030550    2.155758   -0.241476
     14          1           0        1.662292    1.314190    1.316284
     15          1           0        2.216256    0.000224   -1.429281
     16          1           0        3.299507    0.000559    0.018966
     17          1           0       -0.605800    0.000421    1.491167
     18         16           0       -2.323337   -0.000534   -0.145198
     19          1           0       -3.099054   -0.000379    0.910437
 ---------------------------------------------------------------------
 Rotational constants (GHZ):      4.2916341      1.4418648      1.1636576
 Standard basis: 6-311++G (5D, 7F)
 There are   175 symmetry adapted basis functions of A   symmetry.
 Integral buffers will be    262144 words long.
 Raffenetti 1 integral format.
 Two-electron integral symmetry is turned on.
   175 basis functions,   296 primitive gaussians,   175 cartesian basis functions
    32 alpha electrons       32 beta electrons
       nuclear repulsion energy       387.3082132986 Hartrees.
 NAtoms=   19 NActive=   19 NUniq=   19 SFac= 1.00D+00 NAtFMM=   60 NAOKFM=F Big=F
 One-electron integrals computed using PRISM.
 NBasis=   175 RedAO= T  NBF=   175
 NBsUse=   175 1.00D-06 NBFU=   175
 Harris functional with IExCor=  205 diagonalized for initial guess.
 ExpMin= 3.60D-02 ExpMax= 9.34D+04 ExpMxC= 3.17D+03 IAcc=3 IRadAn=         5 AccDes= 0.00D+00
 HarFok:  IExCor=  205 AccDes= 0.00D+00 IRadAn=         5 IDoV= 1
 ScaDFX=  1.000000  1.000000  1.000000  1.000000
 FoFCou: FMM=F IPFlag=           0 FMFlag=      100000 FMFlg1=           0
         NFxFlg=           0 DoJE=T BraDBF=F KetDBF=T FulRan=T
         Omega=  0.000000  0.000000  1.000000  0.000000  0.000000 ICntrl=     500 IOpCl=  0
         NMat0=    1 NMatS0=    1 NMatT0=    0 NMatD0=    1 NMtDS0=    0 NMtDT0=    0
         I1Cent=           4 NGrid=           0.
 Petite list used in FoFCou.
 Initial guess orbital symmetries:
       Occupied  (A) (A) (A) (A) (A) (A) (A) (A) (A) (A) (A) (A)
                 (A) (A) (A) (A) (A) (A) (A) (A) (A) (A) (A) (A)
                 (A) (A) (A) (A) (A) (A) (A) (A)
       Virtual   (A) (A) (A) (A) (A) (A) (A) (A) (A) (A) (A) (A)
                 (A) (A) (A) (A) (A) (A) (A) (A) (A) (A) (A) (A)
                 (A) (A) (A) (A) (A) (A) (A) (A) (A) (A) (A) (A)
                 (A) (A) (A) (A) (A) (A) (A) (A) (A) (A) (A) (A)
                 (A) (A) (A) (A) (A) (A) (A) (A) (A) (A) (A) (A)
                 (A) (A) (A) (A) (A) (A) (A) (A) (A) (A) (A) (A)
                 (A) (A) (A) (A) (A) (A) (A) (A) (A) (A) (A) (A)
                 (A) (A) (A) (A) (A) (A) (A) (A) (A) (A) (A) (A)
                 (A) (A) (A) (A) (A) (A) (A) (A) (A) (A) (A) (A)
                 (A) (A) (A) (A) (A) (A) (A) (A) (A) (A) (A) (A)
                 (A) (A) (A) (A) (A) (A) (A) (A) (A) (A) (A) (A)
                 (A) (A) (A) (A) (A) (A) (A) (A) (A) (A) (A)
 The electronic state of the initial guess is 1-A.
 Requested convergence on RMS density matrix=1.00D-08 within 128 cycles.
 Requested convergence on MAX density matrix=1.00D-06.
 Requested convergence on             energy=1.00D-06.
 No special actions if energy rises.
 DSYEVD returned Info=         263 IAlg= 4 N=   175 NDim=   175 NE2=      191191 trying DSYEV.
 Initial convergence to 1.0D-05 achieved.  Increase integral accuracy.
 SCF Done:  E(RHF) =  -631.630611355     A.U. after   13 cycles
             Convg  =    0.7365D-08             -V/T =  1.9999
 ExpMin= 3.60D-02 ExpMax= 9.34D+04 ExpMxC= 3.17D+03 IAcc=3 IRadAn=         5 AccDes= 0.00D+00
 HarFok:  IExCor=  205 AccDes= 0.00D+00 IRadAn=         5 IDoV=-2
 ScaDFX=  1.000000  1.000000  1.000000  1.000000
 Range of M.O.s used for correlation:    12   175
 NBasis=   175 NAE=    32 NBE=    32 NFC=    11 NFV=     0
 NROrb=    164 NOA=    21 NOB=    21 NVA=   143 NVB=   143

 **** Warning!!: The largest alpha MO coefficient is  0.76168809D+02

 Disk-based method using ON**2 memory for 21 occupieds at a time.
 Estimated scratch disk usage=   227266687 words.
 Actual    scratch disk usage=   196250239 words.
 JobTyp=1 Pass  1:  I=  12 to  32 NPSUse=  1 ParTrn=F ParDer=F DoDerP=T.
 Spin components of T(2) and E(2):
     alpha-alpha T2 =       0.2991727523D-01 E2=     -0.7453189784D-01
     alpha-beta  T2 =       0.1964718195D+00 E2=     -0.5099083741D+00
     beta-beta   T2 =       0.2991727523D-01 E2=     -0.7453189784D-01
 ANorm=    0.1120850735D+01
 E2 =    -0.6589721698D+00 EUMP2 =    -0.63228958352522D+03
          IDoAtm=1111111111111111111
          Differentiating once with respect to electric field.
                with respect to dipole field.
          Differentiating once with respect to nuclear coordinates.
          There are     1 degrees of freedom in the 1st order CPHF.  IDoFFX=0.
 LinEq1:  Iter=  0 NonCon=     1 RMS=2.89D-03 Max=3.24D-02
 AX will form     1 AO Fock derivatives at one time.
 LinEq1:  Iter=  1 NonCon=     1 RMS=5.32D-04 Max=6.03D-03
 LinEq1:  Iter=  2 NonCon=     1 RMS=2.04D-04 Max=2.31D-03
 LinEq1:  Iter=  3 NonCon=     1 RMS=4.01D-05 Max=4.30D-04
 LinEq1:  Iter=  4 NonCon=     1 RMS=9.93D-06 Max=1.34D-04
 LinEq1:  Iter=  5 NonCon=     1 RMS=2.69D-06 Max=2.53D-05
 LinEq1:  Iter=  6 NonCon=     1 RMS=6.44D-07 Max=8.82D-06
 LinEq1:  Iter=  7 NonCon=     1 RMS=2.02D-07 Max=3.11D-06
 LinEq1:  Iter=  8 NonCon=     1 RMS=4.00D-08 Max=4.73D-07
 LinEq1:  Iter=  9 NonCon=     1 RMS=6.33D-09 Max=9.36D-08
 LinEq1:  Iter= 10 NonCon=     1 RMS=1.88D-09 Max=1.97D-08
 LinEq1:  Iter= 11 NonCon=     1 RMS=3.96D-10 Max=3.46D-09
 LinEq1:  Iter= 12 NonCon=     0 RMS=9.14D-11 Max=8.67D-10
 Linear equations converged to 1.000D-10 1.000D-09 after    12 iterations.
 End of Minotr Frequency-dependent properties file   721 does not exist.
 End of Minotr Frequency-dependent properties file   722 does not exist.

 **********************************************************************

            Population analysis using the SCF density.

 **********************************************************************

 Orbital symmetries:
       Occupied  (A) (A) (A) (A) (A) (A) (A) (A) (A) (A) (A) (A)
                 (A) (A) (A) (A) (A) (A) (A) (A) (A) (A) (A) (A)
                 (A) (A) (A) (A) (A) (A) (A) (A)
       Virtual   (A) (A) (A) (A) (A) (A) (A) (A) (A) (A) (A) (A)
                 (A) (A) (A) (A) (A) (A) (A) (A) (A) (A) (A) (A)
                 (A) (A) (A) (A) (A) (A) (A) (A) (A) (A) (A) (A)
                 (A) (A) (A) (A) (A) (A) (A) (A) (A) (A) (A) (A)
                 (A) (A) (A) (A) (A) (A) (A) (A) (A) (A) (A) (A)
                 (A) (A) (A) (A) (A) (A) (A) (A) (A) (A) (A) (A)
                 (A) (A) (A) (A) (A) (A) (A) (A) (A) (A) (A) (A)
                 (A) (A) (A) (A) (A) (A) (A) (A) (A) (A) (A) (A)
                 (A) (A) (A) (A) (A) (A) (A) (A) (A) (A) (A) (A)
                 (A) (A) (A) (A) (A) (A) (A) (A) (A) (A) (A) (A)
                 (A) (A) (A) (A) (A) (A) (A) (A) (A) (A) (A) (A)
                 (A) (A) (A) (A) (A) (A) (A) (A) (A) (A) (A)
 The electronic state is 1-A.
 Alpha  occ. eigenvalues --  -91.94409 -11.27785 -11.23797 -11.23794 -11.23483
 Alpha  occ. eigenvalues --  -11.23473 -11.23291  -8.95227  -6.63534  -6.63233
 Alpha  occ. eigenvalues --   -6.63033  -1.15163  -1.05804  -1.02003  -0.94367
 Alpha  occ. eigenvalues --   -0.84036  -0.81408  -0.75732  -0.65445  -0.63156
 Alpha  occ. eigenvalues --   -0.61035  -0.60872  -0.55067  -0.53724  -0.53325
 Alpha  occ. eigenvalues --   -0.50862  -0.48641  -0.45889  -0.44549  -0.43878
 Alpha  occ. eigenvalues --   -0.41537  -0.35202
 Alpha virt. eigenvalues --    0.04011   0.04876   0.05267   0.05611   0.06962
 Alpha virt. eigenvalues --    0.07678   0.07811   0.08389   0.08510   0.09821
 Alpha virt. eigenvalues --    0.10304   0.10661   0.12210   0.13427   0.14910
 Alpha virt. eigenvalues --    0.16121   0.16461   0.17376   0.18025   0.18090
 Alpha virt. eigenvalues --    0.18877   0.19528   0.19609   0.19898   0.20668
 Alpha virt. eigenvalues --    0.20867   0.21266   0.21871   0.21919   0.22801
 Alpha virt. eigenvalues --    0.23643   0.23843   0.24011   0.24681   0.24708
 Alpha virt. eigenvalues --    0.25457   0.26078   0.26089   0.27929   0.28463
 Alpha virt. eigenvalues --    0.31682   0.32597   0.34434   0.35696   0.35878
 Alpha virt. eigenvalues --    0.38158   0.38473   0.39069   0.39157   0.40584
 Alpha virt. eigenvalues --    0.44980   0.45246   0.45954   0.47216   0.47264
 Alpha virt. eigenvalues --    0.47655   0.48279   0.48704   0.49933   0.50296
 Alpha virt. eigenvalues --    0.52236   0.54361   0.60797   0.60918   0.62657
 Alpha virt. eigenvalues --    0.64763   0.64933   0.66623   0.67758   0.69186
 Alpha virt. eigenvalues --    0.75785   0.75885   0.79962   0.86836   0.87221
 Alpha virt. eigenvalues --    0.87399   0.88677   0.89057   0.90153   0.91083
 Alpha virt. eigenvalues --    0.91215   0.93340   0.94146   0.94914   0.95459
 Alpha virt. eigenvalues --    0.95508   0.95967   0.95996   0.96300   1.00414
 Alpha virt. eigenvalues --    1.07429   1.11128   1.11270   1.13240   1.18141
 Alpha virt. eigenvalues --    1.32613   1.32717   1.57279   1.57735   2.03816
 Alpha virt. eigenvalues --    2.05777   2.10591   2.75041   2.79632   2.82388
 Alpha virt. eigenvalues --    2.82601   2.85922   2.87795   2.88873   2.89009
 Alpha virt. eigenvalues --    2.90714   2.91744   2.92166   2.98187   3.23842
 Alpha virt. eigenvalues --    3.23946   3.28627   3.32026   3.32033   3.33184
 Alpha virt. eigenvalues --    3.33289   3.38599   3.38778   3.40055   3.40526
 Alpha virt. eigenvalues --    3.42814   3.48963   3.50693   3.64465   3.69298
 Alpha virt. eigenvalues --    3.71728   3.72006   8.51017  18.43962  18.47248
 Alpha virt. eigenvalues --   18.55536  24.46741  24.65227  24.65976  24.78858
 Alpha virt. eigenvalues --   24.86811  24.87311 192.38543
          Condensed to atoms (all electrons):
              1          2          3          4          5          6
     1  C   10.814908  -2.938463  -0.432021   1.220013   0.005688  -2.356205
     2  C   -2.938463  13.137800  -3.391892  -1.657942   1.224255  -0.386166
     3  C   -0.432021  -3.391892  13.471245  -3.377342  -0.437729   0.751029
     4  C    1.220013  -1.657942  -3.377342  13.132922  -2.940944  -0.388758
     5  C    0.005688   1.224255  -0.437729  -2.940944  10.813588  -2.354631
     6  C   -2.356205  -0.386166   0.751029  -0.388758  -2.354631  10.673223
     7  H   -0.053985   0.090974   0.050064   0.210023  -0.047900  -0.011491
     8  H   -0.031918   0.385539  -0.093340   0.035095   0.025194  -0.025047
     9  H    0.431519  -0.048982  -0.008261  -0.025603   0.010270  -0.020653
    10  H    0.460655   0.007229  -0.062661  -0.000952  -0.027308  -0.086718
    11  H   -0.047693   0.209826   0.049449   0.090907  -0.053104  -0.011379
    12  H    0.025379   0.035225  -0.093926   0.385580  -0.031828  -0.024883
    13  H   -0.027216  -0.001192  -0.062767   0.007794   0.460286  -0.086786
    14  H    0.009913  -0.025122  -0.007983  -0.049343   0.431807  -0.020881
    15  H    0.018104  -0.037366  -0.035168  -0.037856   0.018350   0.426358
    16  H   -0.086717  -0.046645   0.049776  -0.046406  -0.086851   0.498305
    17  H   -0.121298   0.001209   0.433036   0.002331  -0.121268  -0.092461
    18  S   -0.261471   0.182147  -1.049668   0.182582  -0.261283   0.139354
    19  H    0.021032  -0.012993   0.024765  -0.013158   0.021078   0.002550
              7          8          9         10         11         12
     1  C   -0.053985  -0.031918   0.431519   0.460655  -0.047693   0.025379
     2  C    0.090974   0.385539  -0.048982   0.007229   0.209826   0.035225
     3  C    0.050064  -0.093340  -0.008261  -0.062661   0.049449  -0.093926
     4  C    0.210023   0.035095  -0.025603  -0.000952   0.090907   0.385580
     5  C   -0.047900   0.025194   0.010270  -0.027308  -0.053104  -0.031828
     6  C   -0.011491  -0.025047  -0.020653  -0.086718  -0.011379  -0.024883
     7  H    0.434086   0.006927  -0.002797  -0.013852  -0.027880  -0.007402
     8  H    0.006927   0.450252  -0.004195  -0.008410  -0.007388  -0.002376
     9  H   -0.002797  -0.004195   0.407071  -0.005434  -0.000985   0.003763
    10  H   -0.013852  -0.008410  -0.005434   0.453553   0.008199  -0.001190
    11  H   -0.027880  -0.007388  -0.000985   0.008199   0.434043   0.006891
    12  H   -0.007402  -0.002376   0.003763  -0.001190   0.006891   0.450201
    13  H    0.008239  -0.001195  -0.000347  -0.002604  -0.013869  -0.008415
    14  H   -0.000993   0.003775  -0.002516  -0.000350  -0.002769  -0.004234
    15  H   -0.004001   0.002061  -0.001280  -0.001207  -0.003977   0.002062
    16  H    0.000764  -0.002010   0.003260  -0.003511   0.000746  -0.002010
    17  H    0.013975  -0.015004  -0.004608   0.001567   0.013913  -0.015075
    18  S    0.037424   0.025810  -0.002342   0.001694   0.037305   0.025909
    19  H   -0.001611   0.003648  -0.000274   0.000666  -0.001608   0.003642
             13         14         15         16         17         18
     1  C   -0.027216   0.009913   0.018104  -0.086717  -0.121298  -0.261471
     2  C   -0.001192  -0.025122  -0.037366  -0.046645   0.001209   0.182147
     3  C   -0.062767  -0.007983  -0.035168   0.049776   0.433036  -1.049668
     4  C    0.007794  -0.049343  -0.037856  -0.046406   0.002331   0.182582
     5  C    0.460286   0.431807   0.018350  -0.086851  -0.121268  -0.261283
     6  C   -0.086786  -0.020881   0.426358   0.498305  -0.092461   0.139354
     7  H    0.008239  -0.000993  -0.004001   0.000764   0.013975   0.037424
     8  H   -0.001195   0.003775   0.002061  -0.002010  -0.015004   0.025810
     9  H   -0.000347  -0.002516  -0.001280   0.003260  -0.004608  -0.002342
    10  H   -0.002604  -0.000350  -0.001207  -0.003511   0.001567   0.001694
    11  H   -0.013869  -0.002769  -0.003977   0.000746   0.013913   0.037305
    12  H   -0.008415  -0.004234   0.002062  -0.002010  -0.015075   0.025909
    13  H    0.453550  -0.005343  -0.001204  -0.003488   0.001595   0.001662
    14  H   -0.005343   0.406950  -0.001291   0.003231  -0.004582  -0.002340
    15  H   -0.001204  -0.001291   0.400061   0.000954  -0.008558   0.001580
    16  H   -0.003488   0.003231   0.000954   0.441584   0.002602  -0.007892
    17  H    0.001595  -0.004582  -0.008558   0.002602   0.492951   0.017218
    18  S    0.001662  -0.002340   0.001580  -0.007892   0.017218  16.935494
    19  H    0.000668  -0.000274  -0.000123   0.000374  -0.011310   0.193910
             19
     1  C    0.021032
     2  C   -0.012993
     3  C    0.024765
     4  C   -0.013158
     5  C    0.021078
     6  C    0.002550
     7  H   -0.001611
     8  H    0.003648
     9  H   -0.000274
    10  H    0.000666
    11  H   -0.001608
    12  H    0.003642
    13  H    0.000668
    14  H   -0.000274
    15  H   -0.000123
    16  H    0.000374
    17  H   -0.011310
    18  S    0.193910
    19  H    0.626575
 Mulliken atomic charges:
              1
     1  C   -0.650222
     2  C   -0.727442
     3  C    0.223394
     4  C   -0.728941
     5  C   -0.647670
     6  C   -0.624761
     7  H    0.319437
     8  H    0.252581
     9  H    0.272396
    10  H    0.280633
    11  H    0.319376
    12  H    0.252687
    13  H    0.280633
    14  H    0.272344
    15  H    0.262502
    16  H    0.283934
    17  H    0.413767
    18  S   -0.197092
    19  H    0.142442
 Sum of Mulliken atomic charges =   0.00000
 Mulliken charges with hydrogens summed into heavy atoms:
              1
     1  C   -0.097192
     2  C   -0.155423
     3  C    0.637160
     4  C   -0.156878
     5  C   -0.094693
     6  C   -0.078325
    18  S   -0.054650
 Sum of Mulliken charges with hydrogens summed into heavy atoms =   0.00000
 Electronic spatial extent (au):  <R**2>=           1067.2487
 Charge=              0.0000 electrons
 Dipole moment (field-independent basis, Debye):
    X=              1.5584    Y=              0.0011    Z=              1.6257  Tot=              2.2520
 Quadrupole moment (field-independent basis, Debye-Ang):
   XX=            -57.1530   YY=            -55.2775   ZZ=            -53.0087
   XY=             -0.0060   XZ=             -4.9347   YZ=             -0.0006
 Traceless Quadrupole moment (field-independent basis, Debye-Ang):
   XX=             -2.0066   YY=             -0.1311   ZZ=              2.1377
   XY=             -0.0060   XZ=             -4.9347   YZ=             -0.0006
 Octapole moment (field-independent basis, Debye-Ang**2):
  XXX=             -2.0438  YYY=              0.0071  ZZZ=              1.7437  XYY=              3.7752
  XXY=             -0.0054  XXZ=             13.7157  XZZ=             -1.2401  YZZ=             -0.0009
  YYZ=              0.2681  XYZ=              0.0015
 Hexadecapole moment (field-independent basis, Debye-Ang**3):
 XXXX=           -981.7619 YYYY=           -381.6002 ZZZZ=           -127.4554 XXXY=             -0.0173
 XXXZ=            -37.1038 YYYX=             -0.0282 YYYZ=             -0.0007 ZZZX=             -5.4132
 ZZZY=             -0.0027 XXYY=           -244.3721 XXZZ=           -189.5271 YYZZ=            -86.4367
 XXYZ=             -0.0006 YYXZ=             -5.7688 ZZXY=             -0.0079
 N-N= 3.873082132986D+02 E-N=-2.265411607448D+03  KE= 6.316690662051D+02
 ******************************Gaussian NBO Version 3.1******************************
             N A T U R A L   A T O M I C   O R B I T A L   A N D
          N A T U R A L   B O N D   O R B I T A L   A N A L Y S I S
 ******************************Gaussian NBO Version 3.1******************************
       /RESON  / : Allow strongly delocalized NBO set

 Analyzing the SCF density

 Job title: Title Card Required                                             

 Storage needed:     93152 in NPA,    123411 in NBO (  33553299 available)


 NATURAL POPULATIONS:  Natural atomic orbital occupancies 
                                                          
   NAO  Atom  No  lang   Type(AO)    Occupancy      Energy
 ----------------------------------------------------------
     1    C    1  S      Cor( 1S)     1.99937     -11.08150
     2    C    1  S      Val( 2S)     1.01323      -0.24123
     3    C    1  S      Ryd( 3S)     0.00156       0.97334
     4    C    1  S      Ryd( 4S)     0.00038       1.21753
     5    C    1  S      Ryd( 5S)     0.00000      24.24609
     6    C    1  px     Val( 2p)     1.05485      -0.05471
     7    C    1  px     Ryd( 4p)     0.00295       0.71939
     8    C    1  px     Ryd( 3p)     0.00058       0.40953
     9    C    1  px     Ryd( 5p)     0.00008       3.18805
    10    C    1  py     Val( 2p)     1.11805      -0.07336
    11    C    1  py     Ryd( 4p)     0.00485       0.77202
    12    C    1  py     Ryd( 3p)     0.00059       0.43348
    13    C    1  py     Ryd( 5p)     0.00006       3.25130
    14    C    1  pz     Val( 2p)     1.15639      -0.07405
    15    C    1  pz     Ryd( 4p)     0.00272       0.78140
    16    C    1  pz     Ryd( 3p)     0.00019       0.41754
    17    C    1  pz     Ryd( 5p)     0.00003       3.24440

    18    C    2  S      Cor( 1S)     1.99933     -11.08129
    19    C    2  S      Val( 2S)     1.01140      -0.24219
    20    C    2  S      Ryd( 4S)     0.00257       1.11528
    21    C    2  S      Ryd( 3S)     0.00030       1.10942
    22    C    2  S      Ryd( 5S)     0.00000      24.15803
    23    C    2  px     Val( 2p)     1.06032      -0.06262
    24    C    2  px     Ryd( 4p)     0.00448       0.76006
    25    C    2  px     Ryd( 3p)     0.00046       0.44727
    26    C    2  px     Ryd( 5p)     0.00012       3.19523
    27    C    2  py     Val( 2p)     1.10218      -0.07293
    28    C    2  py     Ryd( 4p)     0.00489       0.77934
    29    C    2  py     Ryd( 3p)     0.00062       0.41765
    30    C    2  py     Ryd( 5p)     0.00005       3.26184
    31    C    2  pz     Val( 2p)     1.16790      -0.08109
    32    C    2  pz     Ryd( 4p)     0.00390       0.79529
    33    C    2  pz     Ryd( 3p)     0.00035       0.40492
    34    C    2  pz     Ryd( 5p)     0.00003       3.25823

    35    C    3  S      Cor( 1S)     1.99921     -11.13270
    36    C    3  S      Val( 2S)     1.02419      -0.31863
    37    C    3  S      Ryd( 4S)     0.00198       1.05751
    38    C    3  S      Ryd( 3S)     0.00091       1.01695
    39    C    3  S      Ryd( 5S)     0.00001      24.55690
    40    C    3  px     Val( 2p)     1.02321      -0.15050
    41    C    3  px     Ryd( 4p)     0.00383       0.89865
    42    C    3  px     Ryd( 3p)     0.00058       0.50133
    43    C    3  px     Ryd( 5p)     0.00018       3.19863
    44    C    3  py     Val( 2p)     1.08637      -0.10486
    45    C    3  py     Ryd( 4p)     0.00420       0.72047
    46    C    3  py     Ryd( 3p)     0.00047       0.32063
    47    C    3  py     Ryd( 5p)     0.00004       3.22278
    48    C    3  pz     Val( 2p)     1.17703      -0.12604
    49    C    3  pz     Ryd( 4p)     0.00297       0.82083
    50    C    3  pz     Ryd( 3p)     0.00041       0.50156
    51    C    3  pz     Ryd( 5p)     0.00008       3.27036

    52    C    4  S      Cor( 1S)     1.99933     -11.08133
    53    C    4  S      Val( 2S)     1.01149      -0.24226
    54    C    4  S      Ryd( 4S)     0.00257       1.11477
    55    C    4  S      Ryd( 3S)     0.00030       1.11017
    56    C    4  S      Ryd( 5S)     0.00000      24.15761
    57    C    4  px     Val( 2p)     1.06021      -0.06260
    58    C    4  px     Ryd( 4p)     0.00448       0.75987
    59    C    4  px     Ryd( 3p)     0.00046       0.44696
    60    C    4  px     Ryd( 5p)     0.00012       3.19515
    61    C    4  py     Val( 2p)     1.10208      -0.07291
    62    C    4  py     Ryd( 4p)     0.00488       0.77914
    63    C    4  py     Ryd( 3p)     0.00062       0.41742
    64    C    4  py     Ryd( 5p)     0.00005       3.26169
    65    C    4  pz     Val( 2p)     1.16790      -0.08109
    66    C    4  pz     Ryd( 4p)     0.00390       0.79560
    67    C    4  pz     Ryd( 3p)     0.00035       0.40474
    68    C    4  pz     Ryd( 5p)     0.00003       3.25831

    69    C    5  S      Cor( 1S)     1.99937     -11.08152
    70    C    5  S      Val( 2S)     1.01326      -0.24129
    71    C    5  S      Ryd( 3S)     0.00156       0.97417
    72    C    5  S      Ryd( 4S)     0.00038       1.21616
    73    C    5  S      Ryd( 5S)     0.00000      24.24698
    74    C    5  px     Val( 2p)     1.05491      -0.05473
    75    C    5  px     Ryd( 4p)     0.00295       0.71961
    76    C    5  px     Ryd( 3p)     0.00058       0.40980
    77    C    5  px     Ryd( 5p)     0.00008       3.18817
    78    C    5  py     Val( 2p)     1.11813      -0.07336
    79    C    5  py     Ryd( 4p)     0.00486       0.77259
    80    C    5  py     Ryd( 3p)     0.00059       0.43369
    81    C    5  py     Ryd( 5p)     0.00006       3.25170
    82    C    5  pz     Val( 2p)     1.15630      -0.07405
    83    C    5  pz     Ryd( 4p)     0.00272       0.78094
    84    C    5  pz     Ryd( 3p)     0.00019       0.41778
    85    C    5  pz     Ryd( 5p)     0.00003       3.24431

    86    C    6  S      Cor( 1S)     1.99938     -11.08000
    87    C    6  S      Val( 2S)     1.01390      -0.24005
    88    C    6  S      Ryd( 3S)     0.00157       1.04561
    89    C    6  S      Ryd( 4S)     0.00031       1.18904
    90    C    6  S      Ryd( 5S)     0.00000      24.19021
    91    C    6  px     Val( 2p)     1.14576      -0.07798
    92    C    6  px     Ryd( 4p)     0.00526       0.82839
    93    C    6  px     Ryd( 3p)     0.00057       0.44175
    94    C    6  px     Ryd( 5p)     0.00004       3.29512
    95    C    6  py     Val( 2p)     1.03332      -0.04714
    96    C    6  py     Ryd( 4p)     0.00255       0.71755
    97    C    6  py     Ryd( 3p)     0.00060       0.39702
    98    C    6  py     Ryd( 5p)     0.00009       3.15621
    99    C    6  pz     Val( 2p)     1.15028      -0.07204
   100    C    6  pz     Ryd( 4p)     0.00201       0.75906
   101    C    6  pz     Ryd( 3p)     0.00026       0.41410
   102    C    6  pz     Ryd( 5p)     0.00003       3.23063

   103    H    7  S      Val( 1S)     0.81175       0.08045
   104    H    7  S      Ryd( 3S)     0.00137       1.05098
   105    H    7  S      Ryd( 2S)     0.00030       0.52680
   106    H    7  S      Ryd( 4S)     0.00008       2.07901

   107    H    8  S      Val( 1S)     0.80264       0.09178
   108    H    8  S      Ryd( 3S)     0.00097       0.93352
   109    H    8  S      Ryd( 2S)     0.00030       0.37114
   110    H    8  S      Ryd( 4S)     0.00007       2.29128

   111    H    9  S      Val( 1S)     0.82548       0.07026
   112    H    9  S      Ryd( 3S)     0.00153       0.92941
   113    H    9  S      Ryd( 2S)     0.00020       0.36035
   114    H    9  S      Ryd( 4S)     0.00009       2.32887

   115    H   10  S      Val( 1S)     0.80917       0.08549
   116    H   10  S      Ryd( 3S)     0.00121       0.76257
   117    H   10  S      Ryd( 2S)     0.00009       0.43610
   118    H   10  S      Ryd( 4S)     0.00007       2.37141

   119    H   11  S      Val( 1S)     0.81171       0.08045
   120    H   11  S      Ryd( 3S)     0.00137       1.05021
   121    H   11  S      Ryd( 2S)     0.00030       0.52630
   122    H   11  S      Ryd( 4S)     0.00008       2.08018

   123    H   12  S      Val( 1S)     0.80263       0.09178
   124    H   12  S      Ryd( 3S)     0.00097       0.93271
   125    H   12  S      Ryd( 2S)     0.00030       0.37064
   126    H   12  S      Ryd( 4S)     0.00007       2.29241

   127    H   13  S      Val( 1S)     0.80920       0.08551
   128    H   13  S      Ryd( 3S)     0.00121       0.76292
   129    H   13  S      Ryd( 2S)     0.00009       0.43266
   130    H   13  S      Ryd( 4S)     0.00007       2.37450

   131    H   14  S      Val( 1S)     0.82549       0.07023
   132    H   14  S      Ryd( 3S)     0.00153       0.93019
   133    H   14  S      Ryd( 2S)     0.00020       0.35988
   134    H   14  S      Ryd( 4S)     0.00009       2.32862

   135    H   15  S      Val( 1S)     0.82327       0.07419
   136    H   15  S      Ryd( 3S)     0.00148       0.93593
   137    H   15  S      Ryd( 2S)     0.00011       0.22937
   138    H   15  S      Ryd( 4S)     0.00008       2.45628

   139    H   16  S      Val( 1S)     0.81237       0.08493
   140    H   16  S      Ryd( 3S)     0.00119       0.80630
   141    H   16  S      Ryd( 2S)     0.00010       0.35246
   142    H   16  S      Ryd( 4S)     0.00007       2.40852

   143    H   17  S      Val( 1S)     0.79890       0.06893
   144    H   17  S      Ryd( 3S)     0.00169       0.94984
   145    H   17  S      Ryd( 2S)     0.00013       0.23280
   146    H   17  S      Ryd( 4S)     0.00009       2.45516

   147    S   18  S      Cor( 1S)     2.00000     -90.73175
   148    S   18  S      Cor( 2S)     1.99943      -9.90818
   149    S   18  S      Val( 3S)     1.65986      -0.86894
   150    S   18  S      Ryd( 5S)     0.00315       0.92961
   151    S   18  S      Ryd( 4S)     0.00012       0.41515
   152    S   18  S      Ryd( 6S)     0.00000      14.93792
   153    S   18  S      Ryd( 7S)     0.00000     185.57434
   154    S   18  px     Cor( 2p)     1.99991      -6.62407
   155    S   18  px     Val( 3p)     0.99488      -0.13816
   156    S   18  px     Ryd( 5p)     0.00637       0.57947
   157    S   18  px     Ryd( 4p)     0.00017       0.25738
   158    S   18  px     Ryd( 6p)     0.00006       2.20879
   159    S   18  px     Ryd( 7p)     0.00000      18.19341
   160    S   18  py     Cor( 2p)     1.99999      -6.62335
   161    S   18  py     Val( 3p)     1.96999      -0.36130
   162    S   18  py     Ryd( 5p)     0.00566       0.51362
   163    S   18  py     Ryd( 4p)     0.00012       0.25731
   164    S   18  py     Ryd( 6p)     0.00004       2.13676
   165    S   18  py     Ryd( 7p)     0.00000      18.18039
   166    S   18  pz     Cor( 2p)     1.99994      -6.62410
   167    S   18  pz     Val( 3p)     1.41604      -0.23871
   168    S   18  pz     Ryd( 5p)     0.00118       0.57720
   169    S   18  pz     Ryd( 4p)     0.00014       0.26790
   170    S   18  pz     Ryd( 6p)     0.00004       2.13381
   171    S   18  pz     Ryd( 7p)     0.00000      18.17977

   172    H   19  S      Val( 1S)     0.88060      -0.11024
   173    H   19  S      Ryd( 3S)     0.00074       0.48245
   174    H   19  S      Ryd( 4S)     0.00018       2.58582
   175    H   19  S      Ryd( 2S)     0.00014       0.24597

 WARNING:  Population inversion found on atom  C    1
           Population inversion found on atom  C    2
           Population inversion found on atom  C    3
           Population inversion found on atom  C    4
           Population inversion found on atom  C    5
           Population inversion found on atom  C    6
           Population inversion found on atom  H    7
           Population inversion found on atom  H    8
           Population inversion found on atom  H    9
           Population inversion found on atom  H   10
           Population inversion found on atom  H   11
           Population inversion found on atom  H   12
           Population inversion found on atom  H   13
           Population inversion found on atom  H   14
           Population inversion found on atom  H   15
           Population inversion found on atom  H   16
           Population inversion found on atom  H   17
           Population inversion found on atom  S   18
           Population inversion found on atom  H   19


 Summary of Natural Population Analysis:                  
                                                          
                                       Natural Population 
                Natural  -----------------------------------------------
    Atom  No    Charge         Core      Valence    Rydberg      Total
 -----------------------------------------------------------------------
      C    1   -0.35589      1.99937     4.34252    0.01399     6.35589
      C    2   -0.35890      1.99933     4.34181    0.01777     6.35890
      C    3   -0.32567      1.99921     4.31080    0.01565     6.32567
      C    4   -0.35876      1.99933     4.34168    0.01776     6.35876
      C    5   -0.35598      1.99937     4.34261    0.01400     6.35598
      C    6   -0.35594      1.99938     4.34326    0.01330     6.35594
      H    7    0.18650      0.00000     0.81175    0.00175     0.81350
      H    8    0.19602      0.00000     0.80264    0.00134     0.80398
      H    9    0.17271      0.00000     0.82548    0.00181     0.82729
      H   10    0.18946      0.00000     0.80917    0.00137     0.81054
      H   11    0.18654      0.00000     0.81171    0.00175     0.81346
      H   12    0.19604      0.00000     0.80263    0.00133     0.80396
      H   13    0.18943      0.00000     0.80920    0.00137     0.81057
      H   14    0.17270      0.00000     0.82549    0.00181     0.82730
      H   15    0.17506      0.00000     0.82327    0.00167     0.82494
      H   16    0.18626      0.00000     0.81237    0.00136     0.81374
      H   17    0.19918      0.00000     0.79890    0.00191     0.80082
      S   18   -0.05711      9.99927     6.04077    0.01707    16.05711
      H   19    0.11835      0.00000     0.88060    0.00105     0.88165
 =======================================================================
   * Total *    0.00000     21.99526    41.87667    0.12807    64.00000

                                 Natural Population      
 --------------------------------------------------------
   Core                      21.99526 ( 99.9785% of  22)
   Valence                   41.87667 ( 99.7064% of  42)
   Natural Minimal Basis     63.87193 ( 99.7999% of  64)
   Natural Rydberg Basis      0.12807 (  0.2001% of  64)
 --------------------------------------------------------

    Atom  No          Natural Electron Configuration
 ----------------------------------------------------------------------------
      C    1      [core]2S( 1.01)2p( 3.33)4p( 0.01)
      C    2      [core]2S( 1.01)2p( 3.33)4p( 0.01)
      C    3      [core]2S( 1.02)2p( 3.29)4p( 0.01)
      C    4      [core]2S( 1.01)2p( 3.33)4p( 0.01)
      C    5      [core]2S( 1.01)2p( 3.33)4p( 0.01)
      C    6      [core]2S( 1.01)2p( 3.33)4p( 0.01)
      H    7            1S( 0.81)
      H    8            1S( 0.80)
      H    9            1S( 0.83)
      H   10            1S( 0.81)
      H   11            1S( 0.81)
      H   12            1S( 0.80)
      H   13            1S( 0.81)
      H   14            1S( 0.83)
      H   15            1S( 0.82)
      H   16            1S( 0.81)
      H   17            1S( 0.80)
      S   18      [core]3S( 1.66)3p( 4.38)5p( 0.01)
      H   19            1S( 0.88)


 NATURAL BOND ORBITAL ANALYSIS:

                       Occupancies       Lewis Structure    Low   High
           Occ.    -------------------  -----------------   occ   occ
  Cycle   Thresh.   Lewis   Non-Lewis     CR  BD  3C  LP    (L)   (NL)   Dev
 =============================================================================
   1(1)    1.90    63.61788   0.38212     11  19   0   2     0      0    0.02
 -----------------------------------------------------------------------------

 Structure accepted: No low occupancy Lewis orbitals

 --------------------------------------------------------
   Core                     21.99526 ( 99.978% of  22)
   Valence Lewis            41.62262 ( 99.101% of  42)
  ==================       ============================
   Total Lewis              63.61788 ( 99.403% of  64)
  -----------------------------------------------------
   Valence non-Lewis         0.29819 (  0.466% of  64)
   Rydberg non-Lewis         0.08393 (  0.131% of  64)
  ==================       ============================
   Total non-Lewis           0.38212 (  0.597% of  64)
 --------------------------------------------------------


       (Occupancy)   Bond orbital/ Coefficients/ Hybrids
 ---------------------------------------------------------------------------------
     1. (1.98022) BD ( 1) C   1 - C   2  
                ( 49.70%)   0.7050* C   1 s( 28.68%)p 2.49( 71.32%)
                                            0.0002  0.5353  0.0161 -0.0028  0.0000
                                           -0.8229  0.0151  0.0093  0.0006 -0.0141
                                            0.0367 -0.0041 -0.0003 -0.1847  0.0050
                                            0.0009 -0.0009
                ( 50.30%)   0.7093* C   2 s( 28.68%)p 2.49( 71.32%)
                                            0.0001  0.5351  0.0197 -0.0061  0.0000
                                            0.8224 -0.0133 -0.0092 -0.0005 -0.0115
                                            0.0356 -0.0034 -0.0005  0.1874 -0.0027
                                           -0.0034  0.0005
     2. (1.98423) BD ( 1) C   1 - C   6  
                ( 50.10%)   0.7078* C   1 s( 28.63%)p 2.49( 71.37%)
                                            0.0002  0.5348  0.0170 -0.0021  0.0000
                                            0.3986 -0.0378 -0.0005  0.0000  0.6896
                                            0.0038 -0.0093 -0.0005 -0.2788  0.0087
                                            0.0019 -0.0007
                ( 49.90%)   0.7064* C   6 s( 28.63%)p 2.49( 71.37%)
                                            0.0002  0.5348  0.0161 -0.0032  0.0000
                                           -0.3687 -0.0229  0.0074  0.0004 -0.7066
                                            0.0305  0.0057  0.0003  0.2772 -0.0042
                                           -0.0022  0.0006
     3. (1.98024) BD ( 1) C   1 - H   9  
                ( 58.81%)   0.7669* C   1 s( 21.22%)p 3.71( 78.78%)
                                           -0.0001  0.4602 -0.0197  0.0008 -0.0003
                                            0.1033 -0.0097 -0.0036  0.0001 -0.0615
                                            0.0168  0.0077 -0.0001  0.8791  0.0127
                                            0.0032  0.0007
                ( 41.19%)   0.6418* H   9 s(100.00%)
                                            1.0000  0.0027  0.0003  0.0003
     4. (1.98176) BD ( 1) C   1 - H  10  
                ( 59.51%)   0.7714* C   1 s( 21.50%)p 3.65( 78.50%)
                                            0.0001 -0.4635  0.0120 -0.0045 -0.0003
                                           -0.3889 -0.0068 -0.0038 -0.0002  0.7201
                                            0.0161  0.0086  0.0006  0.3383  0.0202
                                            0.0044  0.0005
                ( 40.49%)   0.6363* H  10 s(100.00%)
                                           -1.0000 -0.0014  0.0003 -0.0002
     5. (1.98319) BD ( 1) C   2 - C   3  
                ( 48.14%)   0.6938* C   2 s( 28.35%)p 2.53( 71.65%)
                                            0.0002  0.5323  0.0144  0.0026  0.0005
                                           -0.4004  0.0300  0.0018 -0.0010  0.6902
                                           -0.0023 -0.0086 -0.0009  0.2805 -0.0133
                                           -0.0017  0.0005
                ( 51.86%)   0.7202* C   3 s( 29.69%)p 2.37( 70.31%)
                                            0.0002  0.5448  0.0076  0.0060  0.0006
                                            0.3492  0.0147 -0.0070  0.0024 -0.7064
                                            0.0268  0.0032 -0.0017 -0.2848 -0.0042
                                           -0.0016 -0.0011
     6. (1.97980) BD ( 1) C   2 - H   7  
                ( 59.52%)   0.7715* C   2 s( 21.46%)p 3.66( 78.54%)
                                            0.0001 -0.4629  0.0195 -0.0013  0.0004
                                            0.1024 -0.0063 -0.0038 -0.0006  0.0597
                                           -0.0221 -0.0095 -0.0001  0.8778  0.0140
                                            0.0028  0.0005
                ( 40.48%)   0.6363* H   7 s(100.00%)
                                           -1.0000 -0.0029  0.0002 -0.0003
     7. (1.98279) BD ( 1) C   2 - H   8  
                ( 59.87%)   0.7737* C   2 s( 21.55%)p 3.64( 78.45%)
                                            0.0001 -0.4641  0.0105 -0.0027  0.0001
                                            0.3884  0.0085  0.0050 -0.0002  0.7199
                                            0.0121  0.0081  0.0008 -0.3383 -0.0245
                                           -0.0052 -0.0009
                ( 40.13%)   0.6335* H   8 s(100.00%)
                                           -1.0000 -0.0013 -0.0002 -0.0003
     8. (1.98317) BD ( 1) C   3 - C   4  
                ( 51.87%)   0.7202* C   3 s( 29.68%)p 2.37( 70.32%)
                                            0.0002  0.5447  0.0075  0.0060  0.0006
                                            0.3485  0.0148 -0.0071  0.0024  0.7068
                                           -0.0268 -0.0033  0.0017 -0.2850 -0.0042
                                           -0.0016 -0.0011
                ( 48.13%)   0.6938* C   4 s( 28.33%)p 2.53( 71.67%)
                                            0.0002  0.5321  0.0144  0.0026  0.0005
                                           -0.4004  0.0300  0.0018 -0.0010 -0.6903
                                            0.0023  0.0086  0.0009  0.2805 -0.0132
                                           -0.0017  0.0005
     9. (1.97722) BD ( 1) C   3 - H  17  
                ( 60.38%)   0.7771* C   3 s( 20.78%)p 3.81( 79.22%)
                                           -0.0001  0.4552 -0.0222  0.0084 -0.0005
                                            0.0161  0.0064  0.0051 -0.0010  0.0002
                                            0.0000  0.0000  0.0000  0.8897  0.0143
                                            0.0127  0.0052
                ( 39.62%)   0.6294* H  17 s(100.00%)
                                            1.0000  0.0043 -0.0001  0.0001
    10. (1.98085) BD ( 1) C   3 - S  18  
                ( 51.54%)   0.7179* C   3 s( 19.95%)p 4.01( 80.05%)
                                            0.0001  0.4461  0.0091 -0.0213 -0.0010
                                           -0.8688 -0.0146  0.0062  0.0094 -0.0004
                                            0.0000  0.0000  0.0000 -0.2118 -0.0191
                                            0.0085  0.0009
                ( 48.46%)   0.6961* S  18 s( 21.21%)p 3.72( 78.79%)
                                            0.0000  0.0003  0.4586 -0.0418 -0.0042
                                           -0.0001  0.0000  0.0002  0.8266 -0.0537
                                            0.0054  0.0002 -0.0004  0.0000  0.0003
                                            0.0000  0.0000  0.0000  0.0000  0.0001
                                            0.3190 -0.0049  0.0073 -0.0011  0.0003
    11. (1.98022) BD ( 1) C   4 - C   5  
                ( 50.30%)   0.7092* C   4 s( 28.67%)p 2.49( 71.33%)
                                            0.0001  0.5350  0.0197 -0.0061  0.0000
                                            0.8225 -0.0134 -0.0092 -0.0005  0.0112
                                           -0.0356  0.0034  0.0005  0.1875 -0.0026
                                           -0.0034  0.0005
                ( 49.70%)   0.7050* C   5 s( 28.69%)p 2.49( 71.31%)
                                            0.0002  0.5354  0.0161 -0.0028  0.0000
                                           -0.8227  0.0151  0.0093  0.0006  0.0145
                                           -0.0368  0.0041  0.0002 -0.1853  0.0050
                                            0.0009 -0.0009
    12. (1.97983) BD ( 1) C   4 - H  11  
                ( 59.52%)   0.7715* C   4 s( 21.48%)p 3.66( 78.52%)
                                            0.0001 -0.4630  0.0194 -0.0013  0.0004
                                            0.1023 -0.0064 -0.0038 -0.0006 -0.0597
                                            0.0221  0.0095  0.0001  0.8777  0.0141
                                            0.0028  0.0005
                ( 40.48%)   0.6362* H  11 s(100.00%)
                                           -1.0000 -0.0028  0.0002 -0.0003
    13. (1.98281) BD ( 1) C   4 - H  12  
                ( 59.87%)   0.7737* C   4 s( 21.57%)p 3.64( 78.43%)
                                           -0.0001  0.4643 -0.0105  0.0027 -0.0001
                                           -0.3883 -0.0085 -0.0050  0.0002  0.7197
                                            0.0120  0.0081  0.0008  0.3385  0.0245
                                            0.0052  0.0009
                ( 40.13%)   0.6335* H  12 s(100.00%)
                                            1.0000  0.0013  0.0002  0.0003
    14. (1.98424) BD ( 1) C   5 - C   6  
                ( 50.10%)   0.7078* C   5 s( 28.64%)p 2.49( 71.36%)
                                            0.0002  0.5349  0.0170 -0.0021  0.0000
                                            0.3987 -0.0378 -0.0005  0.0000 -0.6893
                                           -0.0039  0.0093  0.0005 -0.2791  0.0087
                                            0.0019 -0.0007
                ( 49.90%)   0.7064* C   6 s( 28.63%)p 2.49( 71.37%)
                                            0.0002  0.5348  0.0161 -0.0032  0.0000
                                           -0.3694 -0.0229  0.0074  0.0004  0.7062
                                           -0.0306 -0.0057 -0.0003  0.2773 -0.0042
                                           -0.0022  0.0006
    15. (1.98176) BD ( 1) C   5 - H  13  
                ( 59.51%)   0.7714* C   5 s( 21.49%)p 3.65( 78.51%)
                                           -0.0001  0.4634 -0.0120  0.0045  0.0003
                                            0.3893  0.0068  0.0038  0.0002  0.7204
                                            0.0162  0.0086  0.0006 -0.3372 -0.0201
                                           -0.0044 -0.0005
                ( 40.49%)   0.6363* H  13 s(100.00%)
                                            1.0000  0.0014 -0.0003  0.0002
    16. (1.98023) BD ( 1) C   5 - H  14  
                ( 58.81%)   0.7669* C   5 s( 21.21%)p 3.71( 78.79%)
                                           -0.0001  0.4602 -0.0197  0.0008 -0.0003
                                            0.1027 -0.0097 -0.0036  0.0002  0.0607
                                           -0.0168 -0.0077  0.0002  0.8792  0.0126
                                            0.0032  0.0007
                ( 41.19%)   0.6418* H  14 s(100.00%)
                                            1.0000  0.0027  0.0003  0.0003
    17. (1.98028) BD ( 1) C   6 - H  15  
                ( 58.92%)   0.7676* C   6 s( 21.34%)p 3.69( 78.66%)
                                            0.0001 -0.4616  0.0197 -0.0019  0.0002
                                           -0.0031  0.0201  0.0091 -0.0002 -0.0001
                                            0.0000  0.0000  0.0000  0.8865  0.0107
                                            0.0022  0.0007
                ( 41.08%)   0.6409* H  15 s(100.00%)
                                           -1.0000 -0.0027 -0.0001 -0.0003
    18. (1.98224) BD ( 1) C   6 - H  16  
                ( 59.37%)   0.7705* C   6 s( 21.43%)p 3.67( 78.57%)
                                           -0.0001  0.4628 -0.0109  0.0049  0.0002
                                            0.8518  0.0189  0.0098  0.0005  0.0004
                                            0.0000  0.0000  0.0000  0.2435  0.0180
                                            0.0034  0.0006
                ( 40.63%)   0.6374* H  16 s(100.00%)
                                            1.0000  0.0015  0.0005  0.0001
    19. (1.99223) BD ( 1) S  18 - H  19  
                ( 55.96%)   0.7480* S  18 s( 16.33%)p 5.12( 83.67%)
                                            0.0000 -0.0001  0.4036 -0.0195  0.0051
                                            0.0004 -0.0001  0.0000 -0.5128  0.0553
                                            0.0041  0.0020 -0.0001  0.0000  0.0001
                                            0.0000  0.0000  0.0000  0.0000 -0.0001
                                            0.7552 -0.0178 -0.0022  0.0014  0.0003
                ( 44.04%)   0.6637* H  19 s(100.00%)
                                            1.0000  0.0008  0.0004  0.0001
    20. (1.99937) CR ( 1) C   1           s(100.00%)p 0.00(  0.00%)
                                            1.0000 -0.0001  0.0000  0.0000  0.0000
                                            0.0002  0.0000  0.0000  0.0000 -0.0002
                                            0.0000  0.0000  0.0000  0.0001  0.0000
                                            0.0000  0.0000
    21. (1.99933) CR ( 1) C   2           s(100.00%)p 0.00(  0.00%)
                                            1.0000 -0.0001  0.0000  0.0000  0.0000
                                           -0.0001  0.0000  0.0000  0.0000 -0.0003
                                            0.0000  0.0000  0.0000 -0.0001  0.0000
                                            0.0000  0.0000
    22. (1.99921) CR ( 1) C   3           s(100.00%)p 0.00(  0.00%)
                                            1.0000 -0.0002  0.0000  0.0000  0.0000
                                            0.0000  0.0000  0.0000  0.0000  0.0000
                                            0.0000  0.0000  0.0000  0.0002  0.0000
                                            0.0000  0.0000
    23. (1.99933) CR ( 1) C   4           s(100.00%)p 0.00(  0.00%)
                                            1.0000 -0.0001  0.0000  0.0000  0.0000
                                           -0.0001  0.0000  0.0000  0.0000  0.0003
                                            0.0000  0.0000  0.0000 -0.0001  0.0000
                                            0.0000  0.0000
    24. (1.99937) CR ( 1) C   5           s(100.00%)p 0.00(  0.00%)
                                            1.0000 -0.0001  0.0000  0.0000  0.0000
                                            0.0002  0.0000  0.0000  0.0000  0.0002
                                            0.0000  0.0000  0.0000  0.0001  0.0000
                                            0.0000  0.0000
    25. (1.99938) CR ( 1) C   6           s(100.00%)p 0.00(  0.00%)
                                            1.0000 -0.0001  0.0000  0.0000  0.0000
                                            0.0003  0.0000  0.0000  0.0000  0.0000
                                            0.0000  0.0000  0.0000 -0.0001  0.0000
                                            0.0000  0.0000
    26. (2.00000) CR ( 1) S  18           s(100.00%)
                                            1.0000  0.0000  0.0000  0.0000  0.0000
                                            0.0000  0.0000  0.0000  0.0000  0.0000
                                            0.0000  0.0000  0.0000  0.0000  0.0000
                                            0.0000  0.0000  0.0000  0.0000  0.0000
                                            0.0000  0.0000  0.0000  0.0000  0.0000
    27. (1.99943) CR ( 2) S  18           s(100.00%)p 0.00(  0.00%)
                                            0.0000  1.0000 -0.0001  0.0000  0.0000
                                            0.0000  0.0000  0.0000 -0.0003  0.0000
                                            0.0000  0.0000  0.0000  0.0000  0.0000
                                            0.0000  0.0000  0.0000  0.0000  0.0000
                                            0.0000  0.0000  0.0000  0.0000  0.0000
    28. (1.99991) CR ( 3) S  18           s(  0.00%)p 1.00(100.00%)
                                            0.0000  0.0000  0.0000  0.0000  0.0000
                                            0.0000  0.0000  1.0000 -0.0002  0.0000
                                            0.0000  0.0000  0.0000  0.0000  0.0000
                                            0.0000  0.0000  0.0000  0.0000  0.0000
                                           -0.0001  0.0000  0.0000  0.0000  0.0000
    29. (1.99999) CR ( 4) S  18           s(  0.00%)p 1.00(100.00%)
                                            0.0000  0.0000  0.0000  0.0000  0.0000
                                            0.0000  0.0000  0.0000  0.0000  0.0000
                                            0.0000  0.0000  0.0000  1.0000  0.0000
                                            0.0000  0.0000  0.0000  0.0000  0.0000
                                            0.0000  0.0000  0.0000  0.0000  0.0000
    30. (1.99994) CR ( 5) S  18           s(  0.00%)p 1.00(100.00%)
                                            0.0000  0.0000 -0.0001  0.0000  0.0000
                                            0.0000  0.0000  0.0000 -0.0001  0.0000
                                            0.0000  0.0000  0.0000  0.0000  0.0000
                                            0.0000  0.0000  0.0000  0.0000  1.0000
                                            0.0001  0.0000  0.0000  0.0000  0.0000
    31. (1.99170) LP ( 1) S  18           s( 62.68%)p 0.60( 37.32%)
                                            0.0000  0.0000  0.7915  0.0183 -0.0001
                                           -0.0001  0.0000 -0.0001 -0.2178  0.0027
                                           -0.0009 -0.0025  0.0004  0.0000 -0.0004
                                            0.0000  0.0000  0.0000  0.0000  0.0001
                                           -0.5707 -0.0033 -0.0026  0.0035  0.0006
    32. (1.97362) LP ( 2) S  18           s(  0.00%)p 1.00(100.00%)
                                            0.0000  0.0000  0.0001  0.0000  0.0000
                                            0.0000  0.0000  0.0000 -0.0003  0.0000
                                            0.0000  0.0000  0.0000  0.0000  0.9991
                                            0.0428 -0.0033  0.0015  0.0003  0.0000
                                           -0.0004  0.0000  0.0000  0.0000  0.0000
    33. (0.00535) RY*( 1) C   1           s(  4.55%)p20.99( 95.45%)
                                            0.0000  0.0211  0.1700  0.1269  0.0046
                                           -0.0172  0.3339  0.0026  0.0280  0.0267
                                           -0.7083 -0.0604 -0.0421  0.0219 -0.5626
                                            0.1306  0.0083
    34. (0.00103) RY*( 2) C   1           s( 12.36%)p 7.09( 87.64%)
                                            0.0000 -0.0148  0.3203 -0.1441 -0.0081
                                            0.0227  0.0615  0.2600 -0.0981 -0.0021
                                            0.5832 -0.3326 -0.0286  0.0133 -0.5624
                                            0.1635 -0.0054
    35. (0.00079) RY*( 3) C   1           s(  2.45%)p39.85( 97.55%)
                                            0.0000 -0.0082  0.1552  0.0181 -0.0025
                                           -0.0282 -0.8727  0.2231  0.2277 -0.0239
                                           -0.2420 -0.0854  0.1455  0.0077 -0.1354
                                            0.0728 -0.0133
    36. (0.00046) RY*( 4) C   1           s( 20.74%)p 3.82( 79.26%)
                                            0.0000 -0.0027  0.1375  0.4340 -0.0108
                                           -0.0040 -0.1686 -0.8136  0.0927 -0.0077
                                            0.2057 -0.0154  0.0003 -0.0026 -0.1955
                                            0.0906  0.0683
    37. (0.00039) RY*( 5) C   1           s( 37.42%)p 1.67( 62.58%)
                                            0.0000 -0.0003  0.2595  0.5539 -0.0110
                                            0.0107  0.0120  0.3709 -0.0845 -0.0018
                                            0.1472  0.6542 -0.0927 -0.0021 -0.0483
                                           -0.0389  0.1369
    38. (0.00019) RY*( 6) C   1           s( 50.14%)p 0.99( 49.86%)
                                            0.0000 -0.0035  0.6757  0.2108 -0.0188
                                            0.0097  0.1082  0.0548 -0.0546 -0.0187
                                           -0.1204 -0.4437 -0.0662  0.0146  0.5111
                                           -0.0272  0.0503
    39. (0.00007) RY*( 7) C   1           s( 53.19%)p 0.88( 46.81%)
    40. (0.00002) RY*( 8) C   1           s( 15.64%)p 5.39( 84.36%)
    41. (0.00003) RY*( 9) C   1           s(  2.26%)p43.26( 97.74%)
    42. (0.00000) RY*(10) C   1           s( 93.56%)p 0.07(  6.44%)
    43. (0.00001) RY*(11) C   1           s(  5.26%)p18.00( 94.74%)
    44. (0.00001) RY*(12) C   1           s(  2.39%)p40.91( 97.61%)
    45. (0.00654) RY*( 1) C   2           s(  6.55%)p14.28( 93.45%)
                                            0.0000  0.0171  0.2477  0.0617  0.0016
                                            0.0135 -0.3088 -0.0548 -0.0230  0.0230
                                           -0.6416 -0.0786 -0.0369 -0.0287  0.6291
                                           -0.1382  0.0038
    46. (0.00361) RY*( 2) C   2           s( 20.03%)p 3.99( 79.97%)
                                            0.0000 -0.0087  0.4453 -0.0437 -0.0057
                                            0.0098  0.8531 -0.0866 -0.0293 -0.0259
                                           -0.0009 -0.0612  0.0149 -0.0117  0.2039
                                           -0.1284 -0.0241
    47. (0.00078) RY*( 3) C   2           s( 38.46%)p 1.60( 61.54%)
                                            0.0000 -0.0135  0.6176  0.0533 -0.0120
                                           -0.0328 -0.3544  0.0443  0.2445 -0.0030
                                            0.5347 -0.3559 -0.0759 -0.0105  0.0834
                                           -0.0201 -0.0340
    48. (0.00060) RY*( 4) C   2           s( 34.42%)p 1.91( 65.58%)
                                            0.0000  0.0072  0.5017  0.3036 -0.0167
                                            0.0040 -0.0475 -0.0102  0.0423 -0.0186
                                           -0.4069  0.2359 -0.0027 -0.0062 -0.5621
                                            0.3323 -0.0605
    49. (0.00040) RY*( 5) C   2           s(  2.52%)p38.73( 97.48%)
                                            0.0000 -0.0037  0.0268  0.1563 -0.0034
                                           -0.0136 -0.0632 -0.5852  0.1067  0.0102
                                            0.2726  0.6502 -0.2039  0.0052  0.2611
                                            0.0781 -0.0612
    50. (0.00034) RY*( 6) C   2           s( 38.84%)p 1.57( 61.16%)
                                            0.0000  0.0008 -0.0352  0.6222  0.0099
                                            0.0047  0.0582  0.6266 -0.1736  0.0010
                                            0.1806  0.2751 -0.0021  0.0086  0.2345
                                           -0.0666 -0.1324
    51. (0.00007) RY*( 7) C   2           s(  8.93%)p10.20( 91.07%)
    52. (0.00005) RY*( 8) C   2           s( 12.40%)p 7.07( 87.60%)
    53. (0.00003) RY*( 9) C   2           s( 10.25%)p 8.75( 89.75%)
    54. (0.00001) RY*(10) C   2           s( 32.12%)p 2.11( 67.88%)
[...]
   9. BD (   1) C   3 - H  17        /168. BD*(   1) C   4 - H  11            3.69    1.30    0.062
  10. BD (   1) C   3 - S  18        / 46. RY*(   2) C   2                    1.47    1.43    0.041
  10. BD (   1) C   3 - S  18        / 70. RY*(   2) C   4                    1.47    1.43    0.041
  10. BD (   1) C   3 - S  18        /157. BD*(   1) C   1 - C   2            3.59    1.30    0.061
  10. BD (   1) C   3 - S  18        /167. BD*(   1) C   4 - C   5            3.59    1.30    0.061
  10. BD (   1) C   3 - S  18        /175. BD*(   1) S  18 - H  19            0.50    1.02    0.020
  11. BD (   1) C   4 - C   5        / 57. RY*(   1) C   3                    1.54    1.75    0.047
  11. BD (   1) C   4 - C   5        / 93. RY*(   1) C   6                    1.49    1.77    0.046
  11. BD (   1) C   4 - C   5        /164. BD*(   1) C   3 - C   4            1.01    1.39    0.033
  11. BD (   1) C   4 - C   5        /166. BD*(   1) C   3 - S  18            5.08    1.06    0.065
  11. BD (   1) C   4 - C   5        /170. BD*(   1) C   5 - C   6            0.74    1.40    0.029
  11. BD (   1) C   4 - C   5        /174. BD*(   1) C   6 - H  16            1.98    1.41    0.047
  12. BD (   1) C   4 - H  11        /165. BD*(   1) C   3 - H  17            4.19    1.27    0.065
  12. BD (   1) C   4 - H  11        /172. BD*(   1) C   5 - H  14            3.59    1.27    0.060
  13. BD (   1) C   4 - H  12        /161. BD*(   1) C   2 - C   3            4.08    1.27    0.064
  13. BD (   1) C   4 - H  12        /170. BD*(   1) C   5 - C   6            3.52    1.28    0.060
  14. BD (   1) C   5 - C   6        / 33. RY*(   1) C   1                    1.54    1.74    0.046
  14. BD (   1) C   5 - C   6        / 69. RY*(   1) C   4                    1.70    1.74    0.049
  14. BD (   1) C   5 - C   6        /158. BD*(   1) C   1 - C   6            0.76    1.40    0.029
  14. BD (   1) C   5 - C   6        /160. BD*(   1) C   1 - H  10            2.05    1.41    0.048
  14. BD (   1) C   5 - C   6        /167. BD*(   1) C   4 - C   5            0.72    1.39    0.028
  14. BD (   1) C   5 - C   6        /169. BD*(   1) C   4 - H  12            2.01    1.42    0.048
  14. BD (   1) C   5 - C   6        /171. BD*(   1) C   5 - H  13            0.52    1.41    0.024
  15. BD (   1) C   5 - H  13        /158. BD*(   1) C   1 - C   6            3.55    1.28    0.060
  15. BD (   1) C   5 - H  13        /164. BD*(   1) C   3 - C   4            3.65    1.27    0.061
  16. BD (   1) C   5 - H  14        /168. BD*(   1) C   4 - H  11            3.73    1.27    0.062
  16. BD (   1) C   5 - H  14        /173. BD*(   1) C   6 - H  15            3.65    1.27    0.061
  17. BD (   1) C   6 - H  15        /159. BD*(   1) C   1 - H   9            3.71    1.27    0.061
  17. BD (   1) C   6 - H  15        /172. BD*(   1) C   5 - H  14            3.71    1.27    0.061
  18. BD (   1) C   6 - H  16        /157. BD*(   1) C   1 - C   2            3.70    1.27    0.061
  18. BD (   1) C   6 - H  16        /167. BD*(   1) C   4 - C   5            3.70    1.27    0.061
  19. BD (   1) S  18 - H  19        /161. BD*(   1) C   2 - C   3            0.60    1.29    0.025
  19. BD (   1) S  18 - H  19        /164. BD*(   1) C   3 - C   4            0.60    1.29    0.025
  19. BD (   1) S  18 - H  19        /165. BD*(   1) C   3 - H  17            0.92    1.30    0.031
  19. BD (   1) S  18 - H  19        /166. BD*(   1) C   3 - S  18            0.70    0.96    0.023
  20. CR (   1) C   1                / 95. RY*(   3) C   6                    0.79   12.06    0.087
  21. CR (   1) C   2                / 35. RY*(   3) C   1                    0.85   12.21    0.091
  21. CR (   1) C   2                / 58. RY*(   2) C   3                    1.31   11.76    0.111
  22. CR (   1) C   3                / 47. RY*(   3) C   2                    0.72   12.11    0.083
  22. CR (   1) C   3                / 71. RY*(   3) C   4                    0.72   12.11    0.083
  22. CR (   1) C   3                /166. BD*(   1) C   3 - S  18            1.71   11.42    0.125
  23. CR (   1) C   4                / 58. RY*(   2) C   3                    1.31   11.76    0.111
  23. CR (   1) C   4                / 83. RY*(   3) C   5                    0.85   12.21    0.091
  24. CR (   1) C   5                / 95. RY*(   3) C   6                    0.79   12.06    0.087
  25. CR (   1) C   6                / 35. RY*(   3) C   1                    0.87   12.22    0.092
  25. CR (   1) C   6                / 83. RY*(   3) C   5                    0.87   12.22    0.092
  27. CR (   2) S  18                /154. RY*(   1) H  19                    0.62   10.44    0.072
  31. LP (   1) S  18                /165. BD*(   1) C   3 - H  17            0.84    1.42    0.031
  32. LP (   2) S  18                /157. BD*(   1) C   1 - C   2            1.10    0.97    0.029
  32. LP (   2) S  18                /161. BD*(   1) C   2 - C   3            2.90    0.97    0.047
  32. LP (   2) S  18                /164. BD*(   1) C   3 - C   4            2.90    0.97    0.047
  32. LP (   2) S  18                /167. BD*(   1) C   4 - C   5            1.10    0.97    0.029


 Natural Bond Orbitals (Summary):

                                                            Principal Delocalizations
           NBO                        Occupancy    Energy   (geminal,vicinal,remote)
 ====================================================================================
 Molecular unit  1  (C6H12S)
     1. BD (   1) C   1 - C   2          1.97996    -0.78503  166(v),174(v),57(v),93(v)
                                                    161(g),158(g)
     2. BD (   1) C   1 - C   6          1.98606    -0.78558  171(v),163(v),45(v),81(v)
                                                    170(g),157(g),160(g)
     3. BD (   1) C   1 - H   9          1.98338    -0.66208  162(v),173(v)
     4. BD (   1) C   1 - H  10          1.98384    -0.66391  161(v),170(v)
     5. BD (   1) C   2 - C   3          1.98609    -0.82163  169(v),69(v),33(v),160(v)
                                                    164(g),157(g)
     6. BD (   1) C   2 - H   7          1.98236    -0.66215  165(v),159(v)
     7. BD (   1) C   2 - H   8          1.98447    -0.66533  164(v),158(v)
     8. BD (   1) C   3 - C   4          1.98609    -0.82163  163(v),45(v),81(v),171(v)
                                                    161(g),167(g)
     9. BD (   1) C   3 - H  17          1.98147    -0.69214  162(v),168(v),166(g),45(v)
                                                    69(v)
    10. BD (   1) C   3 - S  18          1.97904    -0.69458  157(v),167(v),70(v),46(v)
                                                    175(g)
    11. BD (   1) C   4 - C   5          1.97996    -0.78503  166(v),174(v),57(v),93(v)
                                                    164(g),170(g)
    12. BD (   1) C   4 - H  11          1.98236    -0.66215  165(v),172(v)
    13. BD (   1) C   4 - H  12          1.98447    -0.66533  161(v),170(v)
    14. BD (   1) C   5 - C   6          1.98606    -0.78558  160(v),169(v),69(v),33(v)
                                                    158(g),167(g),171(g)
    15. BD (   1) C   5 - H  13          1.98384    -0.66391  164(v),158(v)
    16. BD (   1) C   5 - H  14          1.98338    -0.66208  168(v),173(v)
    17. BD (   1) C   6 - H  15          1.98331    -0.65988  159(v),172(v)
    18. BD (   1) C   6 - H  16          1.98429    -0.66305  157(v),167(v)
    19. BD (   1) S  18 - H  19          1.99349    -0.68744  165(v),166(g),161(v),164(v)
    20. CR (   1) C   1                  1.99940   -11.08543  95(v)
    21. CR (   1) C   2                  1.99932   -11.08231  58(v),35(v)
    22. CR (   1) C   3                  1.99918   -11.14833  166(g),47(v),71(v)
    23. CR (   1) C   4                  1.99932   -11.08231  58(v),83(v)
    24. CR (   1) C   5                  1.99940   -11.08543  95(v)
    25. CR (   1) C   6                  1.99941   -11.08308  35(v),83(v)
    26. CR (   1) S  18                  2.00000   -90.78981   
    27. CR (   2) S  18                  1.99962    -9.89615  154(v)
    28. CR (   3) S  18                  1.99995    -6.63054   
    29. CR (   4) S  18                  1.99999    -6.62990   
    30. CR (   5) S  18                  1.99995    -6.63090   
    31. LP (   1) S  18                  1.99622    -0.81411  165(v)
    32. LP (   2) S  18                  1.98047    -0.36146  164(v),161(v),167(r),157(r)
    33. RY*(   1) C   1                  0.00496     0.95743   
    34. RY*(   2) C   1                  0.00097     0.68936   
    35. RY*(   3) C   1                  0.00065     1.13259   
    36. RY*(   4) C   1                  0.00042     0.92062   
    37. RY*(   5) C   1                  0.00035     1.01417   
    38. RY*(   6) C   1                  0.00017     0.92289   
    39. RY*(   7) C   1                  0.00005     1.35126   
    40. RY*(   8) C   1                  0.00002     3.11378   
    41. RY*(   9) C   1                  0.00003     2.25193   
    42. RY*(  10) C   1                  0.00000    23.10182   
    43. RY*(  11) C   1                  0.00000     0.69431   
    44. RY*(  12) C   1                  0.00001     3.45649   
    45. RY*(   1) C   2                  0.00601     0.95115   
    46. RY*(   2) C   2                  0.00302     0.73462   
    47. RY*(   3) C   2                  0.00069     0.95984   
    48. RY*(   4) C   2                  0.00057     1.41456   
    49. RY*(   5) C   2                  0.00031     0.99766   
    50. RY*(   6) C   2                  0.00027     0.74918   
    51. RY*(   7) C   2                  0.00010     1.89198   
    52. RY*(   8) C   2                  0.00003     3.69647   
    53. RY*(   9) C   2                  0.00002     1.17366   
    54. RY*(  10) C   2                  0.00002     1.04610   
    55. RY*(  11) C   2                  0.00000    23.33531   
    56. RY*(  12) C   2                  0.00000     2.71788   
    57. RY*(   1) C   3                  0.00512     0.96950   
    58. RY*(   2) C   3                  0.00298     0.67365   
    59. RY*(   3) C   3                  0.00132     0.88988   
    60. RY*(   4) C   3                  0.00070     1.15111   
    61. RY*(   5) C   3                  0.00034     0.43348   
    62. RY*(   6) C   3                  0.00029     0.86213   
    63. RY*(   7) C   3                  0.00014     0.77554   
    64. RY*(   8) C   3                  0.00002     3.23034   
    65. RY*(   9) C   3                  0.00001     3.12367   
    66. RY*(  10) C   3                  0.00001     0.57467   
    67. RY*(  11) C   3                  0.00000    24.00768   
    68. RY*(  12) C   3                  0.00001     3.07632   
    69. RY*(   1) C   4                  0.00601     0.95118   
    70. RY*(   2) C   4                  0.00302     0.73463   
    71. RY*(   3) C   4                  0.00069     0.95990   
    72. RY*(   4) C   4                  0.00057     1.41478   
    73. RY*(   5) C   4                  0.00031     0.99723   
    74. RY*(   6) C   4                  0.00027     0.74980   
    75. RY*(   7) C   4                  0.00010     1.89284   
    76. RY*(   8) C   4                  0.00003     3.69553   
    77. RY*(   9) C   4                  0.00002     1.17552   
    78. RY*(  10) C   4                  0.00002     1.04355   
    79. RY*(  11) C   4                  0.00000    23.33529   
    80. RY*(  12) C   4                  0.00000     2.71825   
    81. RY*(   1) C   5                  0.00496     0.95742   
    82. RY*(   2) C   5                  0.00097     0.68936   
    83. RY*(   3) C   5                  0.00065     1.13260   
    84. RY*(   4) C   5                  0.00042     0.92053   
    85. RY*(   5) C   5                  0.00035     1.01417   
    86. RY*(   6) C   5                  0.00017     0.92297   
    87. RY*(   7) C   5                  0.00005     1.35135   
    88. RY*(   8) C   5                  0.00002     3.11369   
    89. RY*(   9) C   5                  0.00003     2.25080   
    90. RY*(  10) C   5                  0.00000    23.10194   
    91. RY*(  11) C   5                  0.00000     0.69548   
    92. RY*(  12) C   5                  0.00001     3.45635   
    93. RY*(   1) C   6                  0.00456     0.98385   
    94. RY*(   2) C   6                  0.00082     0.70977   
    95. RY*(   3) C   6                  0.00069     0.97734   
    96. RY*(   4) C   6                  0.00045     0.83906   
    97. RY*(   5) C   6                  0.00037     1.25214   
    98. RY*(   6) C   6                  0.00011     0.87777   
    99. RY*(   7) C   6                  0.00005     1.44714   
   100. RY*(   8) C   6                  0.00002     2.43263   
   101. RY*(   9) C   6                  0.00003     3.22574   
   102. RY*(  10) C   6                  0.00000    23.40482   
   103. RY*(  11) C   6                  0.00000     0.40358   
   104. RY*(  12) C   6                  0.00000     3.05935   
   105. RY*(   1) H   7                  0.00126     1.02223   
   106. RY*(   2) H   7                  0.00026     0.47107   
   107. RY*(   3) H   7                  0.00008     2.15626   
   108. RY*(   1) H   8                  0.00094     0.87793   
   109. RY*(   2) H   8                  0.00028     0.30014   
   110. RY*(   3) H   8                  0.00008     2.40493   
   111. RY*(   1) H   9                  0.00142     0.89977   
   112. RY*(   2) H   9                  0.00019     0.40924   
   113. RY*(   3) H   9                  0.00009     2.29112   
   114. RY*(   1) H  10                  0.00113     0.74305   
   115. RY*(   2) H  10                  0.00010     0.88980   
   116. RY*(   3) H  10                  0.00007     1.91518   
   117. RY*(   1) H  11                  0.00126     1.02227   
   118. RY*(   2) H  11                  0.00026     0.47104   
   119. RY*(   3) H  11                  0.00008     2.15624   
   120. RY*(   1) H  12                  0.00094     0.87786   
   121. RY*(   2) H  12                  0.00028     0.29985   
   122. RY*(   3) H  12                  0.00008     2.40527   
   123. RY*(   1) H  13                  0.00113     0.74305   
   124. RY*(   2) H  13                  0.00010     0.88990   
   125. RY*(   3) H  13                  0.00007     1.91508   
   126. RY*(   1) H  14                  0.00142     0.89975   
   127. RY*(   2) H  14                  0.00019     0.40922   
   128. RY*(   3) H  14                  0.00009     2.29116   
   129. RY*(   1) H  15                  0.00137     0.90762   
   130. RY*(   2) H  15                  0.00009     0.24722   
   131. RY*(   3) H  15                  0.00008     2.44797   
   132. RY*(   1) H  16                  0.00114     0.77949   
   133. RY*(   2) H  16                  0.00010     1.05371   
   134. RY*(   3) H  16                  0.00007     1.71324   
   135. RY*(   1) H  17                  0.00145     0.91077   
   136. RY*(   2) H  17                  0.00020     0.24674   
   137. RY*(   3) H  17                  0.00009     2.45132   
   138. RY*(   1) S  18                  0.00127     0.58830   
   139. RY*(   2) S  18                  0.00091     0.60040   
   140. RY*(   3) S  18                  0.00039     0.70498   
   141. RY*(   4) S  18                  0.00008     0.25556   
   142. RY*(   5) S  18                  0.00008     0.51470   
   143. RY*(   6) S  18                  0.00003     1.01984   
   144. RY*(   7) S  18                  0.00003     0.81166   
   145. RY*(   8) S  18                  0.00003     0.37818   
   146. RY*(   9) S  18                  0.00001     1.88084   
   147. RY*(  10) S  18                  0.00000   185.50260   
   148. RY*(  11) S  18                  0.00000    18.22905   
   149. RY*(  12) S  18                  0.00000    18.35424   
   150. RY*(  13) S  18                  0.00001     1.37814   
   151. RY*(  14) S  18                  0.00000    15.02279   
   152. RY*(  15) S  18                  0.00000     1.97764   
   153. RY*(  16) S  18                  0.00000    18.13334   
   154. RY*(   1) H  19                  0.00056     0.54698   
   155. RY*(   2) H  19                  0.00011     2.60998   
   156. RY*(   3) H  19                  0.00008     0.25249   
   157. BD*(   1) C   1 - C   2          0.01433     0.60778   
   158. BD*(   1) C   1 - C   6          0.01159     0.61207   
   159. BD*(   1) C   1 - H   9          0.01398     0.60728   
   160. BD*(   1) C   1 - H  10          0.00953     0.62690   
   161. BD*(   1) C   2 - C   3          0.01889     0.60526   
   162. BD*(   1) C   2 - H   7          0.01473     0.60989   
   163. BD*(   1) C   2 - H   8          0.01003     0.63167   
   164. BD*(   1) C   3 - C   4          0.01889     0.60527   
   165. BD*(   1) C   3 - H  17          0.01992     0.61043   
   166. BD*(   1) C   3 - S  18          0.02608     0.27043   
   167. BD*(   1) C   4 - C   5          0.01433     0.60778   
   168. BD*(   1) C   4 - H  11          0.01473     0.60990   
   169. BD*(   1) C   4 - H  12          0.01003     0.63166   
   170. BD*(   1) C   5 - C   6          0.01159     0.61207   
   171. BD*(   1) C   5 - H  13          0.00953     0.62690   
   172. BD*(   1) C   5 - H  14          0.01398     0.60729   
   173. BD*(   1) C   6 - H  15          0.01393     0.61083   
   174. BD*(   1) C   6 - H  16          0.00978     0.62749   
   175. BD*(   1) S  18 - H  19          0.00263     0.32684   
       -------------------------------
              Total Lewis   63.66616  ( 99.4784%)
        Valence non-Lewis    0.25848  (  0.4039%)
        Rydberg non-Lewis    0.07536  (  0.1177%)
       -------------------------------
            Total unit  1   64.00000  (100.0000%)
           Charge unit  1    0.00000
 1|1|UNPC-DESKTOP-2TIS01M|FOpt|RMP2-FC|6-311++G|C6H12S1|APPLE|20-Aug-20
 20|0||# opt mp2/6-311++g pop=nbo geom=connectivity||Title Card Require
 d||0,1|C,-3.9826242325,-0.2925128527,-0.0128665897|C,-2.4351155889,-0.
 300130575,-0.0005957449|C,-1.8764532393,1.131385687,0.012018891|C,-2.4
 334965015,1.9579808027,1.1816085539|C,-3.9810062096,1.9654876562,1.169
 2699615|C,-4.5526319083,0.5299514523,1.1644961786|H,-2.077946924,-0.83
 08402225,0.8964691072|H,-2.0462897586,-0.8427042959,-0.8714845887|H,-4
 .337008251,0.1405567524,-0.9625121815|H,-4.3548051899,-1.3254785675,0.
 0290853139|H,-2.0762673244,1.5227069829,2.1286402441|H,-2.0435283692,2
 .9823822541,1.1311121226|H,-4.3520341323,2.5199564345,2.0423103911|H,-
 4.335328637,2.4995857478,0.2725216789|H,-4.2927120581,0.0331289454,2.1
 131285664|H,-5.6493155349,0.5613353848,1.1060432548|H,-2.0984105608,1.
 6303934141,-0.9408527645|S,0.0446322792,1.0694216599,0.1275482072|H,0.
 2953871611,1.7014185793,-1.0777042921||Version=IA32W-G09RevC.01|State=
 1-A|HF=-631.6485009|MP2=-632.3078092|RMSD=5.163e-009|RMSF=1.490e-005|D
 ipole=-0.7444348,0.1755255,-0.333569|PG=C01 [X(C6H12S1)]||@


 KNIGHT- SIRE, I'VE JUST RETURNED FROM THE FRONT
 KING-   HOW GOES THE BATTLE                    
 KNIGHT- THE SITUATION IS QUITE FLUID           
 KING-   WHAT DOES *THAT* MEAN                  
 KNIGHT- WE'RE UP THE CREEK                     
                THE WIZARD OF ID                
 Job cpu time:  0 days  0 hours 19 minutes 55.0 seconds.
 File lengths (MBytes):  RWF=   1519 Int=      0 D2E=      0 Chk=      4 Scr=      1
 Normal termination of Gaussian 09 at Thu Aug 20 00:22:20 2020.
