 Entering Link 1 = C:\G09W\l1.exe PID=      5284.
  
 Copyright (c) 1988,1990,1992,1993,1995,1998,2003,2009,2011,
            Gaussian, Inc.  All Rights Reserved.
  
 This is part of the Gaussian(R) 09 program.  It is based on
 the Gaussian(R) 03 system (copyright 2003, Gaussian, Inc.),
 the Gaussian(R) 98 system (copyright 1998, Gaussian, Inc.),
 the Gaussian(R) 94 system (copyright 1995, Gaussian, Inc.),
 the Gaussian 92(TM) system (copyright 1992, Gaussian, Inc.),
 the Gaussian 90(TM) system (copyright 1990, Gaussian, Inc.),
 the Gaussian 88(TM) system (copyright 1988, Gaussian, Inc.),
 the Gaussian 86(TM) system (copyright 1986, Carnegie Mellon
 University), and the Gaussian 82(TM) system (copyright 1983,
 Carnegie Mellon University). Gaussian is a federally registered
 trademark of Gaussian, Inc.
  
 This software contains proprietary and confidential information,
 including trade secrets, belonging to Gaussian, Inc.
  
 This software is provided under written license and may be
 used, copied, transmitted, or stored only in accord with that
 written license.
  
 The following legend is applicable only to US Government
 contracts under FAR:
  
                    RESTRICTED RIGHTS LEGEND
  
 Use, reproduction and disclosure by the US Government is
 subject to restrictions as set forth in subparagraphs (a)
 and (c) of the Commercial Computer Software - Restricted
 Rights clause in FAR 52.227-19.
  
 Gaussian, Inc.
 340 Quinnipiac St., Bldg. 40, Wallingford CT 06492
  
  
 ---------------------------------------------------------------
 Warning -- This program may not be used in any manner that
 competes with the business of Gaussian, Inc. or will provide
 assistance to any competitor of Gaussian, Inc.  The licensee
 of this program is prohibited from giving any competitor of
 Gaussian, Inc. access to this program.  By using this program,
 the user acknowledges that Gaussian, Inc. is engaged in the
 business of creating and licensing software in the field of
 computational chemistry and represents and warrants to the
 licensee that it is not a competitor of Gaussian, Inc. and that
 it will not use this program in any manner prohibited above.
 ---------------------------------------------------------------
  

 Cite this work as:
 Gaussian 09, Revision C.01,
 M. J. Frisch, G. W. Trucks, H. B. Schlegel, G. E. Scuseria, 
 M. A. Robb, J. R. Cheeseman, G. Scalmani, V. Barone, B. Mennucci, 
 G. A. Petersson, H. Nakatsuji, M. Caricato, X. Li, H. P. Hratchian, 
 A. F. Izmaylov, J. Bloino, G. Zheng, J. L. Sonnenberg, M. Hada, 
 M. Ehara, K. Toyota, R. Fukuda, J. Hasegawa, M. Ishida, T. Nakajima, 
 Y. Honda, O. Kitao, H. Nakai, T. Vreven, J. A. Montgomery, Jr., 
 J. E. Peralta, F. Ogliaro, M. Bearpark, J. J. Heyd, E. Brothers, 
 K. N. Kudin, V. N. Staroverov, T. Keith, R. Kobayashi, J. Normand, 
 K. Raghavachari, A. Rendell, J. C. Burant, S. S. Iyengar, J. Tomasi, 
 M. Cossi, N. Rega, J. M. Millam, M. Klene, J. E. Knox, J. B. Cross, 
 V. Bakken, C. Adamo, J. Jaramillo, R. Gomperts, R. E. Stratmann, 
 O. Yazyev, A. J. Austin, R. Cammi, C. Pomelli, J. W. Ochterski, 
 R. L. Martin, K. Morokuma, V. G. Zakrzewski, G. A. Voth, 
 P. Salvador, J. J. Dannenberg, S. Dapprich, A. D. Daniels, 
 O. Farkas, J. B. Foresman, J. V. Ortiz, J. Cioslowski, 
 and D. J. Fox, Gaussian, Inc., Wallingford CT, 2010.
 
 ******************************************
 Gaussian 09:  IA32W-G09RevC.01 23-Sep-2011
                20-Aug-2020 
 ******************************************
 %chk=C:\G09W\Scratch\D.chk
 --------------------------------------------
 # opt mp2/6-311++g pop=nbo geom=connectivity
 --------------------------------------------
 1/18=20,19=15,38=1,57=2/1,3;
 2/9=110,12=2,17=6,18=5,40=1/2;
 3/5=4,6=6,7=1010,11=9,16=1,25=1,30=1,71=1/1,2,3;
 4//1;
 5/5=2,38=5/2;
 8/6=4,10=2/1;
 9/15=2,16=-3/6;
 10/5=1/2;
 6/7=2,8=2,9=2,10=2/1,7;
 7/12=2/1,2,3,16;
 1/18=20,19=15/3(2);
 2/9=110/2;
 99//99;
 2/9=110/2;
 3/5=4,6=6,7=1010,11=9,16=1,25=1,30=1,71=1/1,2,3;
 4/5=5,16=3/1;
 5/5=2,38=5/2;
 8/6=4,10=2/1;
 9/15=2,16=-3/6;
 10/5=1/2;
 7/12=2/1,2,3,16;
 1/18=20,19=15/3(-8);
 2/9=110/2;
 6/7=2,8=2,9=2,10=2/1,7;
 99//99;
 -------------------
 Title Card Required
 -------------------
 Charge =  0 Multiplicity = 1
 Symbolic Z-Matrix:
 C                    -9.42734  -3.24573  -1.73185 
 C                    -8.03218  -3.24573  -1.73185 
 C                    -7.33464  -2.03798  -1.73185 
 C                    -8.03229  -0.82947  -1.73305 
 C                    -9.42712  -0.82955  -1.73353 
 C                    -10.12472  -2.03776  -1.73254 
 H                    -9.97709  -4.19805  -1.7314 
 H                    -6.23496  -2.0379   -1.73122 
 H                    -7.48209   0.12267  -1.73311 
 H                    -11.22432  -2.03757  -1.73272 
 S                    -10.31751   0.71175  -1.73507 
 H                    -10.5345   1.09017  -2.97031 
 C                    -6.99667  -5.03688  -0.3261 
 H                    -6.43852  -6.00448  -0.32431 
 H                    -6.38689  -4.28136   0.22656 
 H                    -7.95464  -5.18572   0.22906 
 O                    -7.26262  -4.57967  -1.73001 
 

 GradGradGradGradGradGradGradGradGradGradGradGradGradGradGradGradGradGrad
 Berny optimization.
 Initialization pass.
                           ----------------------------
                           !    Initial Parameters    !
                           ! (Angstroms and Degrees)  !
 --------------------------                            --------------------------
 ! Name  Definition              Value          Derivative Info.                !
 --------------------------------------------------------------------------------
 ! R1    R(1,2)                  1.3952         estimate D2E/DX2                !
 ! R2    R(1,6)                  1.3948         estimate D2E/DX2                !
 ! R3    R(1,7)                  1.0996         estimate D2E/DX2                !
 ! R4    R(2,3)                  1.3947         estimate D2E/DX2                !
 ! R5    R(2,17)                 1.54           estimate D2E/DX2                !
 ! R6    R(3,4)                  1.3954         estimate D2E/DX2                !
 ! R7    R(3,8)                  1.0997         estimate D2E/DX2                !
 ! R8    R(4,5)                  1.3948         estimate D2E/DX2                !
 ! R9    R(4,9)                  1.0997         estimate D2E/DX2                !
 ! R10   R(5,6)                  1.3951         estimate D2E/DX2                !
 ! R11   R(5,11)                 1.78           estimate D2E/DX2                !
 ! R12   R(6,10)                 1.0996         estimate D2E/DX2                !
 ! R13   R(11,12)                1.31           estimate D2E/DX2                !
 ! R14   R(13,14)                1.117          estimate D2E/DX2                !
 ! R15   R(13,15)                1.1172         estimate D2E/DX2                !
 ! R16   R(13,16)                1.1172         estimate D2E/DX2                !
 ! R17   R(13,17)                1.5003         estimate D2E/DX2                !
 ! A1    A(2,1,6)              119.9985         estimate D2E/DX2                !
 ! A2    A(2,1,7)              119.9972         estimate D2E/DX2                !
 ! A3    A(6,1,7)              120.0043         estimate D2E/DX2                !
 ! A4    A(1,2,3)              120.0086         estimate D2E/DX2                !
 ! A5    A(1,2,17)             119.9808         estimate D2E/DX2                !
 ! A6    A(3,2,17)             120.0106         estimate D2E/DX2                !
 ! A7    A(2,3,4)              119.9942         estimate D2E/DX2                !
 ! A8    A(2,3,8)              120.0128         estimate D2E/DX2                !
 ! A9    A(4,3,8)              119.993          estimate D2E/DX2                !
 ! A10   A(3,4,5)              119.994          estimate D2E/DX2                !
 ! A11   A(3,4,9)              119.9811         estimate D2E/DX2                !
 ! A12   A(5,4,9)              120.0249         estimate D2E/DX2                !
 ! A13   A(4,5,6)              120.0047         estimate D2E/DX2                !
 ! A14   A(4,5,11)             120.0113         estimate D2E/DX2                !
 ! A15   A(6,5,11)             119.984          estimate D2E/DX2                !
 ! A16   A(1,6,5)              120.0            estimate D2E/DX2                !
 ! A17   A(1,6,10)             120.008          estimate D2E/DX2                !
 ! A18   A(5,6,10)             119.992          estimate D2E/DX2                !
 ! A19   A(5,11,12)            109.5            estimate D2E/DX2                !
 ! A20   A(14,13,15)           108.1971         estimate D2E/DX2                !
 ! A21   A(14,13,16)           108.1957         estimate D2E/DX2                !
 ! A22   A(14,13,17)           110.7359         estimate D2E/DX2                !
 ! A23   A(15,13,16)           108.1987         estimate D2E/DX2                !
 ! A24   A(15,13,17)           110.7071         estimate D2E/DX2                !
 ! A25   A(16,13,17)           110.7081         estimate D2E/DX2                !
 ! A26   A(2,17,13)            110.7128         estimate D2E/DX2                !
 ! D1    D(6,1,2,3)              0.0323         estimate D2E/DX2                !
 ! D2    D(6,1,2,17)           179.9532         estimate D2E/DX2                !
 ! D3    D(7,1,2,3)           -179.9729         estimate D2E/DX2                !
 ! D4    D(7,1,2,17)            -0.052          estimate D2E/DX2                !
 ! D5    D(2,1,6,5)              0.0149         estimate D2E/DX2                !
 ! D6    D(2,1,6,10)           179.9892         estimate D2E/DX2                !
 ! D7    D(7,1,6,5)           -179.9798         estimate D2E/DX2                !
 ! D8    D(7,1,6,10)            -0.0056         estimate D2E/DX2                !
 ! D9    D(1,2,3,4)             -0.0568         estimate D2E/DX2                !
 ! D10   D(1,2,3,8)            179.9619         estimate D2E/DX2                !
 ! D11   D(17,2,3,4)          -179.9777         estimate D2E/DX2                !
 ! D12   D(17,2,3,8)             0.041          estimate D2E/DX2                !
 ! D13   D(1,2,17,13)          -90.0379         estimate D2E/DX2                !
 ! D14   D(3,2,17,13)           89.883          estimate D2E/DX2                !
 ! D15   D(2,3,4,5)              0.0341         estimate D2E/DX2                !
 ! D16   D(2,3,4,9)           -179.9964         estimate D2E/DX2                !
 ! D17   D(8,3,4,5)           -179.9846         estimate D2E/DX2                !
 ! D18   D(8,3,4,9)             -0.0151         estimate D2E/DX2                !
 ! D19   D(3,4,5,6)              0.0131         estimate D2E/DX2                !
 ! D20   D(3,4,5,11)          -179.9995         estimate D2E/DX2                !
 ! D21   D(9,4,5,6)           -179.9563         estimate D2E/DX2                !
 ! D22   D(9,4,5,11)             0.0311         estimate D2E/DX2                !
 ! D23   D(4,5,6,1)             -0.0376         estimate D2E/DX2                !
 ! D24   D(4,5,6,10)           179.9881         estimate D2E/DX2                !
 ! D25   D(11,5,6,1)           179.975          estimate D2E/DX2                !
 ! D26   D(11,5,6,10)            0.0007         estimate D2E/DX2                !
 ! D27   D(4,5,11,12)           89.929          estimate D2E/DX2                !
 ! D28   D(6,5,11,12)          -90.0836         estimate D2E/DX2                !
 ! D29   D(14,13,17,2)         179.9967         estimate D2E/DX2                !
 ! D30   D(15,13,17,2)         -59.9975         estimate D2E/DX2                !
 ! D31   D(16,13,17,2)          59.992          estimate D2E/DX2                !
 --------------------------------------------------------------------------------
 Trust Radius=3.00D-01 FncErr=1.00D-07 GrdErr=1.00D-07
 Number of steps in this run=     84 maximum allowed number of steps=    102.
 GradGradGradGradGradGradGradGradGradGradGradGradGradGradGradGradGradGrad

                          Input orientation:                          
 ---------------------------------------------------------------------
 Center     Atomic      Atomic             Coordinates (Angstroms)
 Number     Number       Type             X           Y           Z
 ---------------------------------------------------------------------
      1          6           0       -9.427335   -3.245734   -1.731853
      2          6           0       -8.032175   -3.245734   -1.731853
      3          6           0       -7.334637   -2.037983   -1.731853
      4          6           0       -8.032291   -0.829474   -1.733052
      5          6           0       -9.427116   -0.829552   -1.733531
      6          6           0      -10.124717   -2.037758   -1.732535
      7          1           0       -9.977094   -4.198051   -1.731403
      8          1           0       -6.234957   -2.037903   -1.731219
      9          1           0       -7.482091    0.122669   -1.733111
     10          1           0      -11.224321   -2.037575   -1.732715
     11         16           0      -10.317507    0.711747   -1.735074
     12          1           0      -10.534497    1.090168   -2.970312
     13          6           0       -6.996665   -5.036883   -0.326098
     14          1           0       -6.438522   -6.004482   -0.324312
     15          1           0       -6.386887   -4.281362    0.226565
     16          1           0       -7.954644   -5.185721    0.229057
     17          8           0       -7.262623   -4.579670   -1.730012
 ---------------------------------------------------------------------
                    Distance matrix (angstroms):
                    1          2          3          4          5
     1  C    0.000000
     2  C    1.395160   0.000000
     3  C    2.416205   1.394712   0.000000
     4  C    2.790065   2.416260   1.395427   0.000000
     5  C    2.416183   2.789946   2.416356   1.394825   0.000000
     6  C    1.394829   2.416183   2.790080   2.416236   1.395138
     7  H    1.099610   2.165553   3.412986   3.889675   3.413102
     8  H    3.413229   2.165375   1.099680   2.165806   3.413209
     9  H    3.889745   3.413024   2.165678   1.099680   2.165606
    10  H    2.165365   3.413128   3.889684   3.412999   2.165471
    11  S    4.056362   4.569946   4.056912   2.756370   1.780000
    12  H    4.643235   5.157076   4.643082   3.387753   2.537960
    13  C    3.330544   2.501328   3.329230   4.555692   5.058616
    14  H    4.304052   3.483044   4.303175   5.595119   6.139829
    15  H    3.761948   2.759510   3.125121   4.296857   4.999996
    16  H    3.126906   2.759480   3.760031   4.778367   4.999614
    17  O    2.542709   1.540000   2.542708   3.828364   4.329946
                    6          7          8          9         10
     6  C    0.000000
     7  H    2.165331   0.000000
     8  H    3.889760   4.320860   0.000000
     9  H    3.413344   4.989355   2.494678   0.000000
    10  H    1.099604   2.494641   4.989364   4.320988   0.000000
    11  S    2.756257   4.921586   4.922175   2.895963   2.895011
    12  H    3.388795   5.459931   5.459507   3.432769   3.433697
    13  C    4.556043   3.400218   3.398301   5.369945   5.370987
    14  H    5.595179   4.214806   4.213618   6.373048   6.373682
    15  H    4.779456   4.090252   2.981461   4.943206   5.681032
    16  H    4.297294   2.984829   4.087636   5.679122   4.944711
    17  O    3.827912   2.741166   2.741656   4.707459   4.707155
                   11         12         13         14         15
    11  S    0.000000
    12  H    1.310000   0.000000
    13  C    6.786748   7.553070   0.000000
    14  H    7.883179   8.608855   1.117038   0.000000
    15  H    6.650484   7.501734   1.117174   1.809772   0.000000
    16  H    6.649892   7.501892   1.117173   1.809755   1.809899
    17  O    6.109946   6.662625   1.500250   2.164537   2.164276
                   16         17
    16  H    0.000000
    17  O    2.164288   0.000000
 Stoichiometry    C7H8OS
 Framework group  C1[X(C7H8OS)]
 Deg. of freedom    45
 Full point group                 C1      NOp   1
 Largest Abelian subgroup         C1      NOp   1
 Largest concise Abelian subgroup C1      NOp   1
                         Standard orientation:                         
 ---------------------------------------------------------------------
 Center     Atomic      Atomic             Coordinates (Angstroms)
 Number     Number       Type             X           Y           Z
 ---------------------------------------------------------------------
      1          6           0       -0.659041    1.208369   -0.260130
      2          6           0       -1.350346    0.000238   -0.354927
      3          6           0       -0.659796   -1.207836   -0.260482
      4          6           0        0.722890   -1.208129   -0.072338
      5          6           0        1.414027   -0.000249    0.021951
      6          6           0        0.722982    1.208107   -0.071555
      7          1           0       -1.203729    2.160722   -0.334172
      8          1           0       -1.204707   -2.160138   -0.334564
      9          1           0        1.267157   -2.160776    0.002040
     10          1           0        1.268020    2.160212    0.003002
     11         16           0        3.177776   -0.000084    0.261934
     12          1           0        3.777556   -0.001320   -0.902695
     13          6           0       -3.590883   -0.000775    0.757115
     14          1           0       -4.697833   -0.000161    0.607325
     15          1           0       -3.319820   -0.906732    1.351964
     16          1           0       -3.319221    0.903165    1.354748
     17          8           0       -2.876354    0.001002   -0.562049
 ---------------------------------------------------------------------
 Rotational constants (GHZ):      4.4835156      0.6598674      0.6058178
 Standard basis: 6-311++G (5D, 7F)
 There are   193 symmetry adapted basis functions of A   symmetry.
 Integral buffers will be    262144 words long.
 Raffenetti 1 integral format.
 Two-electron integral symmetry is turned on.
   193 basis functions,   332 primitive gaussians,   193 cartesian basis functions
    37 alpha electrons       37 beta electrons
       nuclear repulsion energy       473.4745452579 Hartrees.
 NAtoms=   17 NActive=   17 NUniq=   17 SFac= 1.00D+00 NAtFMM=   60 NAOKFM=F Big=F
 One-electron integrals computed using PRISM.
 NBasis=   193 RedAO= T  NBF=   193
 NBsUse=   193 1.00D-06 NBFU=   193
 Harris functional with IExCor=  205 diagonalized for initial guess.
 ExpMin= 3.60D-02 ExpMax= 9.34D+04 ExpMxC= 3.17D+03 IAcc=3 IRadAn=         5 AccDes= 0.00D+00
 HarFok:  IExCor=  205 AccDes= 0.00D+00 IRadAn=         5 IDoV= 1
 ScaDFX=  1.000000  1.000000  1.000000  1.000000
 FoFCou: FMM=F IPFlag=           0 FMFlag=      100000 FMFlg1=           0
         NFxFlg=           0 DoJE=T BraDBF=F KetDBF=T FulRan=T
         Omega=  0.000000  0.000000  1.000000  0.000000  0.000000 ICntrl=     500 IOpCl=  0
         NMat0=    1 NMatS0=    1 NMatT0=    0 NMatD0=    1 NMtDS0=    0 NMtDT0=    0
         I1Cent=           4 NGrid=           0.
 Petite list used in FoFCou.
 Initial guess orbital symmetries:
       Occupied  (A) (A) (A) (A) (A) (A) (A) (A) (A) (A) (A) (A)
                 (A) (A) (A) (A) (A) (A) (A) (A) (A) (A) (A) (A)
                 (A) (A) (A) (A) (A) (A) (A) (A) (A) (A) (A) (A)
                 (A)
       Virtual   (A) (A) (A) (A) (A) (A) (A) (A) (A) (A) (A) (A)
                 (A) (A) (A) (A) (A) (A) (A) (A) (A) (A) (A) (A)
                 (A) (A) (A) (A) (A) (A) (A) (A) (A) (A) (A) (A)
                 (A) (A) (A) (A) (A) (A) (A) (A) (A) (A) (A) (A)
                 (A) (A) (A) (A) (A) (A) (A) (A) (A) (A) (A) (A)
                 (A) (A) (A) (A) (A) (A) (A) (A) (A) (A) (A) (A)
                 (A) (A) (A) (A) (A) (A) (A) (A) (A) (A) (A) (A)
                 (A) (A) (A) (A) (A) (A) (A) (A) (A) (A) (A) (A)
                 (A) (A) (A) (A) (A) (A) (A) (A) (A) (A) (A) (A)
                 (A) (A) (A) (A) (A) (A) (A) (A) (A) (A) (A) (A)
                 (A) (A) (A) (A) (A) (A) (A) (A) (A) (A) (A) (A)
                 (A) (A) (A) (A) (A) (A) (A) (A) (A) (A) (A) (A)
                 (A) (A) (A) (A) (A) (A) (A) (A) (A) (A) (A) (A)
 The electronic state of the initial guess is 1-A.
 Requested convergence on RMS density matrix=1.00D-08 within 128 cycles.
 Requested convergence on MAX density matrix=1.00D-06.
 Requested convergence on             energy=1.00D-06.
 No special actions if energy rises.
 Initial convergence to 1.0D-05 achieved.  Increase integral accuracy.
 SCF Done:  E(RHF) =  -741.984687598     A.U. after   17 cycles
             Convg  =    0.6789D-08             -V/T =  2.0008
 ExpMin= 3.60D-02 ExpMax= 9.34D+04 ExpMxC= 3.17D+03 IAcc=3 IRadAn=         5 AccDes= 0.00D+00
 HarFok:  IExCor=  205 AccDes= 0.00D+00 IRadAn=         5 IDoV=-2
 ScaDFX=  1.000000  1.000000  1.000000  1.000000
 Range of M.O.s used for correlation:    14   193
 NBasis=   193 NAE=    37 NBE=    37 NFC=    13 NFV=     0
 NROrb=    180 NOA=    24 NOB=    24 NVA=   156 NVB=   156

 **** Warning!!: The largest alpha MO coefficient is  0.23967666D+03

 Disk-based method using ON**2 memory for 24 occupieds at a time.
 Estimated scratch disk usage=   323025062 words.
 Actual    scratch disk usage=   293151398 words.
 JobTyp=1 Pass  1:  I=  14 to  37 NPSUse=  1 ParTrn=F ParDer=F DoDerP=T.
 Spin components of T(2) and E(2):
     alpha-alpha T2 =       0.4638532368D-01 E2=     -0.1099544125D+00
     alpha-beta  T2 =       0.2631339534D+00 E2=     -0.6491349425D+00
     beta-beta   T2 =       0.4638532368D-01 E2=     -0.1099544125D+00
 ANorm=    0.1164433167D+01
 E2 =    -0.8690437676D+00 EUMP2 =    -0.74285373136560D+03
          IDoAtm=11111111111111111
          Differentiating once with respect to electric field.
                with respect to dipole field.
          Differentiating once with respect to nuclear coordinates.
          There are     1 degrees of freedom in the 1st order CPHF.  IDoFFX=0.
 LinEq1:  Iter=  0 NonCon=     1 RMS=3.48D-03 Max=6.21D-02
 AX will form     1 AO Fock derivatives at one time.
 LinEq1:  Iter=  1 NonCon=     1 RMS=9.22D-04 Max=1.04D-02
 LinEq1:  Iter=  2 NonCon=     1 RMS=3.37D-04 Max=6.06D-03
 LinEq1:  Iter=  3 NonCon=     1 RMS=1.46D-04 Max=2.75D-03
 LinEq1:  Iter=  4 NonCon=     1 RMS=5.97D-05 Max=1.66D-03
 LinEq1:  Iter=  5 NonCon=     1 RMS=1.45D-05 Max=2.85D-04
 LinEq1:  Iter=  6 NonCon=     1 RMS=4.61D-06 Max=7.87D-05
 LinEq1:  Iter=  7 NonCon=     1 RMS=1.57D-06 Max=3.63D-05
 LinEq1:  Iter=  8 NonCon=     1 RMS=5.65D-07 Max=1.05D-05
 LinEq1:  Iter=  9 NonCon=     1 RMS=1.77D-07 Max=2.22D-06
 LinEq1:  Iter= 10 NonCon=     1 RMS=5.27D-08 Max=6.28D-07
 LinEq1:  Iter= 11 NonCon=     1 RMS=1.56D-08 Max=1.78D-07
 LinEq1:  Iter= 12 NonCon=     1 RMS=3.80D-09 Max=4.12D-08
 LinEq1:  Iter= 13 NonCon=     1 RMS=1.23D-09 Max=1.29D-08
 LinEq1:  Iter= 14 NonCon=     1 RMS=2.01D-10 Max=2.03D-09
 LinEq1:  Iter= 15 NonCon=     0 RMS=4.13D-11 Max=8.82D-10
 Linear equations converged to 1.000D-10 1.000D-09 after    15 iterations.
 End of Minotr Frequency-dependent properties file   721 does not exist.
 End of Minotr Frequency-dependent properties file   722 does not exist.

 **********************************************************************

            Population analysis using the SCF density.

 **********************************************************************

 Orbital symmetries:
       Occupied  (A) (A) (A) (A) (A) (A) (A) (A) (A) (A) (A) (A)
                 (A) (A) (A) (A) (A) (A) (A) (A) (A) (A) (A) (A)
                 (A) (A) (A) (A) (A) (A) (A) (A) (A) (A) (A) (A)
                 (A)
       Virtual   (A) (A) (A) (A) (A) (A) (A) (A) (A) (A) (A) (A)
                 (A) (A) (A) (A) (A) (A) (A) (A) (A) (A) (A) (A)
                 (A) (A) (A) (A) (A) (A) (A) (A) (A) (A) (A) (A)
                 (A) (A) (A) (A) (A) (A) (A) (A) (A) (A) (A) (A)
                 (A) (A) (A) (A) (A) (A) (A) (A) (A) (A) (A) (A)
                 (A) (A) (A) (A) (A) (A) (A) (A) (A) (A) (A) (A)
                 (A) (A) (A) (A) (A) (A) (A) (A) (A) (A) (A) (A)
                 (A) (A) (A) (A) (A) (A) (A) (A) (A) (A) (A) (A)
                 (A) (A) (A) (A) (A) (A) (A) (A) (A) (A) (A) (A)
                 (A) (A) (A) (A) (A) (A) (A) (A) (A) (A) (A) (A)
                 (A) (A) (A) (A) (A) (A) (A) (A) (A) (A) (A) (A)
                 (A) (A) (A) (A) (A) (A) (A) (A) (A) (A) (A) (A)
                 (A) (A) (A) (A) (A) (A) (A) (A) (A) (A) (A) (A)
 The electronic state is 1-A.
 Alpha  occ. eigenvalues --  -91.96635 -20.58669 -11.33065 -11.30310 -11.29712
 Alpha  occ. eigenvalues --  -11.27375 -11.27367 -11.26818 -11.26814  -8.97326
 Alpha  occ. eigenvalues --   -6.65623  -6.65324  -6.65142  -1.34090  -1.18666
 Alpha  occ. eigenvalues --   -1.06987  -1.04546  -0.96633  -0.92277  -0.85803
 Alpha  occ. eigenvalues --   -0.81511  -0.70489  -0.67370  -0.64844  -0.61998
 Alpha  occ. eigenvalues --   -0.61434  -0.60327  -0.60193  -0.55857  -0.53296
 Alpha  occ. eigenvalues --   -0.52344  -0.48626  -0.45677  -0.45537  -0.37869
 Alpha  occ. eigenvalues --   -0.36098  -0.35174
 Alpha virt. eigenvalues --    0.03582   0.04539   0.04752   0.06057   0.06692
 Alpha virt. eigenvalues --    0.07038   0.08068   0.08996   0.09053   0.10004
 Alpha virt. eigenvalues --    0.10632   0.11467   0.12933   0.13001   0.13627
 Alpha virt. eigenvalues --    0.14610   0.15408   0.16207   0.16950   0.17027
 Alpha virt. eigenvalues --    0.17985   0.18221   0.18763   0.19531   0.20532
 Alpha virt. eigenvalues --    0.20534   0.20854   0.20909   0.21422   0.22322
 Alpha virt. eigenvalues --    0.22735   0.23338   0.24153   0.24264   0.24686
 Alpha virt. eigenvalues --    0.25215   0.26074   0.27973   0.28762   0.28898
 Alpha virt. eigenvalues --    0.29423   0.30517   0.31164   0.32358   0.33032
 Alpha virt. eigenvalues --    0.34578   0.35908   0.36721   0.37912   0.38680
 Alpha virt. eigenvalues --    0.39453   0.40194   0.41763   0.41795   0.43131
 Alpha virt. eigenvalues --    0.45382   0.45925   0.46720   0.47467   0.48407
 Alpha virt. eigenvalues --    0.51155   0.52590   0.53666   0.55408   0.59105
 Alpha virt. eigenvalues --    0.60343   0.61051   0.63679   0.66569   0.67488
 Alpha virt. eigenvalues --    0.71486   0.73014   0.73314   0.74709   0.76233
 Alpha virt. eigenvalues --    0.76308   0.80043   0.81457   0.81920   0.82826
 Alpha virt. eigenvalues --    0.84670   0.85940   0.86017   0.86375   0.89600
 Alpha virt. eigenvalues --    0.90550   0.96625   0.96639   0.98548   0.99196
 Alpha virt. eigenvalues --    1.02977   1.04911   1.06499   1.07227   1.08956
 Alpha virt. eigenvalues --    1.10433   1.12344   1.15446   1.16675   1.17087
 Alpha virt. eigenvalues --    1.24422   1.25958   1.32138   1.48478   1.53991
 Alpha virt. eigenvalues --    1.54268   1.55357   1.99757   2.07589   2.07636
 Alpha virt. eigenvalues --    2.11568   2.70084   2.71948   2.75774   2.79328
 Alpha virt. eigenvalues --    2.79703   2.83274   2.86988   2.92691   3.03547
 Alpha virt. eigenvalues --    3.03584   3.08849   3.10854   3.15776   3.17576
 Alpha virt. eigenvalues --    3.18753   3.25293   3.31574   3.33649   3.35320
 Alpha virt. eigenvalues --    3.37396   3.42030   3.46343   3.49282   3.50214
 Alpha virt. eigenvalues --    3.57144   3.62795   3.68862   3.69063   3.82634
 Alpha virt. eigenvalues --    5.65842   5.68690   5.78678   8.47156  18.41754
 Alpha virt. eigenvalues --   18.45976  18.55742  24.34057  24.55495  24.56939
 Alpha virt. eigenvalues --   24.60623  24.74722  24.78963  25.02839  51.59915
 Alpha virt. eigenvalues --  192.34004
          Condensed to atoms (all electrons):
              1          2          3          4          5          6
     1  C   25.493128 -11.745930   0.243406  -4.588753   6.624985 -11.117451
     2  C  -11.745930  24.958524 -11.745687   8.216942 -10.467151   8.210642
     3  C    0.243406 -11.745687  25.503056 -11.098649   6.615257  -4.607711
     4  C   -4.588753   8.216942 -11.098649  20.255568 -10.465122   5.168840
     5  C    6.624985 -10.467151   6.615257 -10.465122  23.760949 -10.469166
     6  C  -11.117451   8.210642  -4.607711   5.168840 -10.469166  20.302977
     7  H    1.003172  -0.595561   0.184107  -0.166245   0.369646  -0.603518
     8  H    0.184294  -0.596222   1.002648  -0.602648   0.369826  -0.166258
     9  H   -0.019291   0.318689  -0.349878   0.776013  -0.526060   0.081526
    10  H   -0.351576   0.318668  -0.019552   0.081188  -0.526277   0.778585
    11  S    0.193572  -0.193319   0.193084  -0.806593  -0.270761  -0.804187
    12  H   -0.034042   0.035868  -0.033620   0.017638   0.063255   0.016946
    13  C    0.468838  -1.053638   0.469566  -0.187622   0.194336  -0.187292
    14  H    0.012647  -0.020913   0.012863   0.001160   0.007216   0.001237
    15  H   -0.151344   0.001380   0.095236   0.031513  -0.017301   0.033539
    16  H    0.095938   0.001188  -0.151686   0.033552  -0.017177   0.031353
    17  O   -0.735720   1.501160  -0.736135   0.170269  -0.129046   0.170325
              7          8          9         10         11         12
     1  C    1.003172   0.184294  -0.019291  -0.351576   0.193572  -0.034042
     2  C   -0.595561  -0.596222   0.318689   0.318668  -0.193319   0.035868
     3  C    0.184107   1.002648  -0.349878  -0.019552   0.193084  -0.033620
     4  C   -0.166245  -0.602648   0.776013   0.081188  -0.806593   0.017638
     5  C    0.369646   0.369826  -0.526060  -0.526277  -0.270761   0.063255
     6  C   -0.603518  -0.166258   0.081526   0.778585  -0.804187   0.016946
     7  H    0.427952   0.004663  -0.001345  -0.023886   0.002269  -0.000660
     8  H    0.004663   0.427998  -0.023859  -0.001343   0.002207  -0.000648
     9  H   -0.001345  -0.023859   0.389750   0.000118  -0.064577   0.004774
    10  H   -0.023886  -0.001343   0.000118   0.389950  -0.064639   0.004802
    11  S    0.002269   0.002207  -0.064577  -0.064639  18.153428   0.150100
    12  H   -0.000660  -0.000648   0.004774   0.004802   0.150100   0.630567
    13  C    0.008232   0.008204  -0.003779  -0.003732   0.007358  -0.000784
    14  H    0.000284   0.000292  -0.000124  -0.000118   0.000760  -0.000075
    15  H   -0.001981  -0.004636   0.000228   0.000561  -0.000768   0.000090
    16  H   -0.004579  -0.001971   0.000566   0.000212  -0.000765   0.000091
    17  O   -0.030019  -0.029996   0.002869   0.002869  -0.001179  -0.000115
             13         14         15         16         17
     1  C    0.468838   0.012647  -0.151344   0.095938  -0.735720
     2  C   -1.053638  -0.020913   0.001380   0.001188   1.501160
     3  C    0.469566   0.012863   0.095236  -0.151686  -0.736135
     4  C   -0.187622   0.001160   0.031513   0.033552   0.170269
     5  C    0.194336   0.007216  -0.017301  -0.017177  -0.129046
     6  C   -0.187292   0.001237   0.033539   0.031353   0.170325
     7  H    0.008232   0.000284  -0.001981  -0.004579  -0.030019
     8  H    0.008204   0.000292  -0.004636  -0.001971  -0.029996
     9  H   -0.003779  -0.000124   0.000228   0.000566   0.002869
    10  H   -0.003732  -0.000118   0.000561   0.000212   0.002869
    11  S    0.007358   0.000760  -0.000768  -0.000765  -0.001179
    12  H   -0.000784  -0.000075   0.000090   0.000091  -0.000115
    13  C    5.926788   0.355699   0.359517   0.359437  -0.069399
    14  H    0.355699   0.464394  -0.017584  -0.017566  -0.041733
    15  H    0.359517  -0.017584   0.524988  -0.061715  -0.022698
    16  H    0.359437  -0.017566  -0.061715   0.524931  -0.022845
    17  O   -0.069399  -0.041733  -0.022698  -0.022845   8.264863
 Mulliken atomic charges:
              1
     1  C    0.424125
     2  C   -1.144639
     3  C    0.423696
     4  C   -0.837051
     5  C    0.882591
     6  C   -0.840385
     7  H    0.427470
     8  H    0.427448
     9  H    0.414380
    10  H    0.414169
    11  S   -0.495990
    12  H    0.145814
    13  C   -0.651729
    14  H    0.241560
    15  H    0.230976
    16  H    0.231035
    17  O   -0.293470
 Sum of Mulliken atomic charges =   0.00000
 Mulliken charges with hydrogens summed into heavy atoms:
              1
     1  C    0.851595
     2  C   -1.144639
     3  C    0.851144
     4  C   -0.422671
     5  C    0.882591
     6  C   -0.426216
    11  S   -0.350176
    13  C    0.051841
    17  O   -0.293470
 Sum of Mulliken charges with hydrogens summed into heavy atoms =   0.00000
 Electronic spatial extent (au):  <R**2>=           1827.9768
 Charge=              0.0000 electrons
 Dipole moment (field-independent basis, Debye):
    X=             -0.7406    Y=             -0.0047    Z=              0.5639  Tot=              0.9308
 Quadrupole moment (field-independent basis, Debye-Ang):
   XX=            -63.1088   YY=            -56.8239   ZZ=            -66.1190
   XY=              0.0061   XZ=            -13.5355   YZ=              0.0050
 Traceless Quadrupole moment (field-independent basis, Debye-Ang):
   XX=             -1.0915   YY=              5.1933   ZZ=             -4.1018
   XY=              0.0061   XZ=            -13.5355   YZ=              0.0050
 Octapole moment (field-independent basis, Debye-Ang**2):
  XXX=            -30.9294  YYY=             -0.0046  ZZZ=              1.4554  XYY=             -7.9337
  XXY=             -0.0539  XXZ=              2.9367  XZZ=             -1.7418  YZZ=              0.0028
  YYZ=             -1.4443  XYZ=              0.0068
 Hexadecapole moment (field-independent basis, Debye-Ang**3):
 XXXX=          -1887.2698 YYYY=           -300.5078 ZZZZ=           -144.0213 XXXY=              0.0182
 XXXZ=           -176.6738 YYYX=              0.0009 YYYZ=              0.0029 ZZZX=             -8.9009
 ZZZY=              0.0038 XXYY=           -402.5467 XXZZ=           -369.8601 YYZZ=            -86.5421
 XXYZ=              0.0454 YYXZ=             -2.0329 ZZXY=             -0.0012
 N-N= 4.734745452579D+02 E-N=-2.697788793307D+03  KE= 7.414268377241D+02
 ******************************Gaussian NBO Version 3.1******************************
             N A T U R A L   A T O M I C   O R B I T A L   A N D
          N A T U R A L   B O N D   O R B I T A L   A N A L Y S I S
 ******************************Gaussian NBO Version 3.1******************************
       /RESON  / : Allow strongly delocalized NBO set

 Analyzing the SCF density

 Job title: Title Card Required                                             

 Storage needed:    112824 in NPA,    149889 in NBO (  33553511 available)


 NATURAL POPULATIONS:  Natural atomic orbital occupancies 
                                                          
   NAO  Atom  No  lang   Type(AO)    Occupancy      Energy
 ----------------------------------------------------------
     1    C    1  S      Cor( 1S)     1.99907     -11.10772
     2    C    1  S      Val( 2S)     0.95273      -0.18885
     3    C    1  S      Ryd( 4S)     0.00165       0.99537
     4    C    1  S      Ryd( 3S)     0.00018       0.61285
     5    C    1  S      Ryd( 5S)     0.00001      24.25091
     6    C    1  px     Val( 2p)     1.09667      -0.06658
     7    C    1  px     Ryd( 4p)     0.00592       1.11463
     8    C    1  px     Ryd( 3p)     0.00025       0.51788
     9    C    1  px     Ryd( 5p)     0.00014       3.10170
    10    C    1  py     Val( 2p)     1.16788      -0.09115
    11    C    1  py     Ryd( 4p)     0.00647       1.21923
    12    C    1  py     Ryd( 3p)     0.00021       0.53710
    13    C    1  py     Ryd( 5p)     0.00008       3.11094
    14    C    1  pz     Val( 2p)     1.01119      -0.08815
    15    C    1  pz     Ryd( 4p)     0.00200       0.71928
    16    C    1  pz     Ryd( 3p)     0.00020       0.36929
    17    C    1  pz     Ryd( 5p)     0.00001       3.02233

    18    C    2  S      Cor( 1S)     1.99857     -11.19338
    19    C    2  S      Val( 2S)     0.86654      -0.16433
    20    C    2  S      Ryd( 4S)     0.00111       1.07177
    21    C    2  S      Ryd( 3S)     0.00020       0.64973
    22    C    2  S      Ryd( 5S)     0.00001      24.22522
    23    C    2  px     Val( 2p)     0.74597       0.00690
    24    C    2  px     Ryd( 4p)     0.00739       1.31406
    25    C    2  px     Ryd( 3p)     0.00044       0.62227
    26    C    2  px     Ryd( 5p)     0.00023       3.21918
    27    C    2  py     Val( 2p)     1.05948      -0.05007
    28    C    2  py     Ryd( 4p)     0.00556       1.15522
    29    C    2  py     Ryd( 3p)     0.00035       0.64377
    30    C    2  py     Ryd( 5p)     0.00010       3.20367
    31    C    2  pz     Val( 2p)     0.97356      -0.08510
    32    C    2  pz     Ryd( 4p)     0.00325       0.84194
    33    C    2  pz     Ryd( 3p)     0.00031       0.55188
    34    C    2  pz     Ryd( 5p)     0.00006       2.92469

    35    C    3  S      Cor( 1S)     1.99907     -11.10778
    36    C    3  S      Val( 2S)     0.95279      -0.18896
    37    C    3  S      Ryd( 4S)     0.00165       0.99548
    38    C    3  S      Ryd( 3S)     0.00018       0.61266
    39    C    3  S      Ryd( 5S)     0.00001      24.25148
    40    C    3  px     Val( 2p)     1.09658      -0.06656
    41    C    3  px     Ryd( 4p)     0.00592       1.11433
    42    C    3  px     Ryd( 3p)     0.00025       0.51783
    43    C    3  px     Ryd( 5p)     0.00013       3.10189
    44    C    3  py     Val( 2p)     1.16797      -0.09127
    45    C    3  py     Ryd( 4p)     0.00647       1.21902
    46    C    3  py     Ryd( 3p)     0.00021       0.53700
    47    C    3  py     Ryd( 5p)     0.00008       3.11118
    48    C    3  pz     Val( 2p)     1.01129      -0.08821
    49    C    3  pz     Ryd( 4p)     0.00200       0.71920
    50    C    3  pz     Ryd( 3p)     0.00020       0.36924
    51    C    3  pz     Ryd( 5p)     0.00001       3.02239

    52    C    4  S      Cor( 1S)     1.99909     -11.11056
    53    C    4  S      Val( 2S)     0.94376      -0.17924
    54    C    4  S      Ryd( 3S)     0.00182       1.03894
    55    C    4  S      Ryd( 4S)     0.00022       1.06629
    56    C    4  S      Ryd( 5S)     0.00001      23.75592
    57    C    4  px     Val( 2p)     1.08415      -0.06201
    58    C    4  px     Ryd( 4p)     0.00751       1.01959
    59    C    4  px     Ryd( 3p)     0.00027       0.46930
    60    C    4  px     Ryd( 5p)     0.00014       3.16638
    61    C    4  py     Val( 2p)     1.15983      -0.08410
    62    C    4  py     Ryd( 4p)     0.00671       1.15856
    63    C    4  py     Ryd( 3p)     0.00023       0.49231
    64    C    4  py     Ryd( 5p)     0.00006       3.17999
    65    C    4  pz     Val( 2p)     0.96042      -0.07768
    66    C    4  pz     Ryd( 4p)     0.00196       0.70260
    67    C    4  pz     Ryd( 3p)     0.00027       0.33409
    68    C    4  pz     Ryd( 5p)     0.00001       3.03160

    69    C    5  S      Cor( 1S)     1.99886     -11.14918
    70    C    5  S      Val( 2S)     0.94272      -0.23554
    71    C    5  S      Ryd( 4S)     0.00156       1.08546
    72    C    5  S      Ryd( 3S)     0.00041       0.48923
    73    C    5  S      Ryd( 5S)     0.00001      24.34993
    74    C    5  px     Val( 2p)     1.05044      -0.15575
    75    C    5  px     Ryd( 4p)     0.00733       1.24834
    76    C    5  px     Ryd( 3p)     0.00017       0.83257
    77    C    5  px     Ryd( 5p)     0.00017       3.15016
    78    C    5  py     Val( 2p)     1.10188      -0.09245
    79    C    5  py     Ryd( 4p)     0.00699       0.95954
    80    C    5  py     Ryd( 3p)     0.00012       0.40204
    81    C    5  py     Ryd( 5p)     0.00010       3.27951
    82    C    5  pz     Val( 2p)     1.09323      -0.12933
    83    C    5  pz     Ryd( 4p)     0.00157       0.80969
    84    C    5  pz     Ryd( 3p)     0.00023       0.33914
    85    C    5  pz     Ryd( 5p)     0.00002       3.02173

    86    C    6  S      Cor( 1S)     1.99909     -11.11044
    87    C    6  S      Val( 2S)     0.94368      -0.17909
    88    C    6  S      Ryd( 3S)     0.00182       1.03915
    89    C    6  S      Ryd( 4S)     0.00022       1.06831
    90    C    6  S      Ryd( 5S)     0.00001      23.75352
    91    C    6  px     Val( 2p)     1.08442      -0.06207
    92    C    6  px     Ryd( 4p)     0.00751       1.02044
    93    C    6  px     Ryd( 3p)     0.00026       0.46951
    94    C    6  px     Ryd( 5p)     0.00014       3.16606
    95    C    6  py     Val( 2p)     1.15965      -0.08399
    96    C    6  py     Ryd( 4p)     0.00671       1.15841
    97    C    6  py     Ryd( 3p)     0.00023       0.49248
    98    C    6  py     Ryd( 5p)     0.00006       3.17947
    99    C    6  pz     Val( 2p)     0.96049      -0.07766
   100    C    6  pz     Ryd( 4p)     0.00196       0.70270
   101    C    6  pz     Ryd( 3p)     0.00027       0.33416
   102    C    6  pz     Ryd( 5p)     0.00001       3.03152

   103    H    7  S      Val( 1S)     0.77391       0.09946
   104    H    7  S      Ryd( 3S)     0.00076       1.04190
   105    H    7  S      Ryd( 4S)     0.00017       2.19148
   106    H    7  S      Ryd( 2S)     0.00008       0.19684

   107    H    8  S      Val( 1S)     0.77392       0.09936
   108    H    8  S      Ryd( 3S)     0.00075       1.04185
   109    H    8  S      Ryd( 4S)     0.00017       2.19143
   110    H    8  S      Ryd( 2S)     0.00008       0.19684

   111    H    9  S      Val( 1S)     0.77773       0.10002
   112    H    9  S      Ryd( 3S)     0.00077       1.01013
   113    H    9  S      Ryd( 2S)     0.00022       0.67407
   114    H    9  S      Ryd( 4S)     0.00015       1.73734

   115    H   10  S      Val( 1S)     0.77773       0.10011
   116    H   10  S      Ryd( 3S)     0.00077       1.01118
   117    H   10  S      Ryd( 2S)     0.00022       0.67440
   118    H   10  S      Ryd( 4S)     0.00015       1.73607

   119    S   11  S      Cor( 1S)     2.00000     -90.74365
   120    S   11  S      Cor( 2S)     1.99942      -9.94319
   121    S   11  S      Val( 3S)     1.65959      -0.87942
   122    S   11  S      Ryd( 5S)     0.00353       0.89868
   123    S   11  S      Ryd( 4S)     0.00016       0.41728
   124    S   11  S      Ryd( 6S)     0.00000      14.89600
   125    S   11  S      Ryd( 7S)     0.00000     185.54527
   126    S   11  px     Cor( 2p)     1.99990      -6.64531
   127    S   11  px     Val( 3p)     1.02100      -0.15663
   128    S   11  px     Ryd( 4p)     0.00635       0.50391
   129    S   11  px     Ryd( 5p)     0.00007       0.51235
   130    S   11  px     Ryd( 6p)     0.00004       2.04591
   131    S   11  px     Ryd( 7p)     0.00000      18.09642
   132    S   11  py     Cor( 2p)     1.99999      -6.64478
   133    S   11  py     Val( 3p)     1.96971      -0.37652
   134    S   11  py     Ryd( 4p)     0.00523       0.51117
   135    S   11  py     Ryd( 5p)     0.00004       0.58255
   136    S   11  py     Ryd( 6p)     0.00005       1.87478
   137    S   11  py     Ryd( 7p)     0.00000      18.12576
   138    S   11  pz     Cor( 2p)     1.99995      -6.64547
   139    S   11  pz     Val( 3p)     1.35848      -0.23904
   140    S   11  pz     Ryd( 5p)     0.00146       0.58215
   141    S   11  pz     Ryd( 4p)     0.00010       0.55709
   142    S   11  pz     Ryd( 6p)     0.00006       1.79454
   143    S   11  pz     Ryd( 7p)     0.00000      18.12419

   144    H   12  S      Val( 1S)     0.87855      -0.12243
   145    H   12  S      Ryd( 3S)     0.00102       0.50965
   146    H   12  S      Ryd( 2S)     0.00021       0.29795
   147    H   12  S      Ryd( 4S)     0.00018       2.48690

   148    C   13  S      Cor( 1S)     1.99930     -11.18258
   149    C   13  S      Val( 2S)     1.10776      -0.34627
   150    C   13  S      Ryd( 4S)     0.00194       1.09758
   151    C   13  S      Ryd( 3S)     0.00018       0.61782
   152    C   13  S      Ryd( 5S)     0.00000      24.44098
   153    C   13  px     Val( 2p)     1.07789      -0.09137
   154    C   13  px     Ryd( 4p)     0.00100       0.83449
   155    C   13  px     Ryd( 3p)     0.00034       0.58093
   156    C   13  px     Ryd( 5p)     0.00005       2.88697
   157    C   13  py     Val( 2p)     1.15888      -0.10700
   158    C   13  py     Ryd( 4p)     0.00017       0.74819
   159    C   13  py     Ryd( 3p)     0.00020       0.60389
   160    C   13  py     Ryd( 5p)     0.00002       2.88825
   161    C   13  pz     Val( 2p)     0.80375      -0.02247
   162    C   13  pz     Ryd( 4p)     0.00213       0.72224
   163    C   13  pz     Ryd( 3p)     0.00020       0.68465
   164    C   13  pz     Ryd( 5p)     0.00012       2.83889

   165    H   14  S      Val( 1S)     0.81849       0.04962
   166    H   14  S      Ryd( 3S)     0.00054       0.59721
   167    H   14  S      Ryd( 2S)     0.00010       0.23587
   168    H   14  S      Ryd( 4S)     0.00006       2.55237

   169    H   15  S      Val( 1S)     0.84004       0.03619
   170    H   15  S      Ryd( 2S)     0.00080       0.53084
   171    H   15  S      Ryd( 3S)     0.00015       0.88060
   172    H   15  S      Ryd( 4S)     0.00007       2.00736

   173    H   16  S      Val( 1S)     0.84002       0.03620
   174    H   16  S      Ryd( 2S)     0.00080       0.53081
   175    H   16  S      Ryd( 3S)     0.00015       0.87977
   176    H   16  S      Ryd( 4S)     0.00007       2.00830

   177    O   17  S      Cor( 1S)     1.99985     -20.39933
   178    O   17  S      Val( 2S)     1.69253      -1.14261
   179    O   17  S      Ryd( 3S)     0.00271       0.96478
   180    O   17  S      Ryd( 4S)     0.00011       1.74981
   181    O   17  S      Ryd( 5S)     0.00000      51.37953
   182    O   17  px     Val( 2p)     1.37469      -0.30983
   183    O   17  px     Ryd( 4p)     0.00213       0.95045
   184    O   17  px     Ryd( 3p)     0.00081       0.94720
   185    O   17  px     Ryd( 5p)     0.00005       5.42695
   186    O   17  py     Val( 2p)     1.96776      -0.49071
   187    O   17  py     Ryd( 3p)     0.00504       0.81813
   188    O   17  py     Ryd( 4p)     0.00028       0.96885
   189    O   17  py     Ryd( 5p)     0.00000       5.51332
   190    O   17  pz     Val( 2p)     1.59254      -0.38837
   191    O   17  pz     Ryd( 3p)     0.00174       0.86248
   192    O   17  pz     Ryd( 4p)     0.00040       0.98319
   193    O   17  pz     Ryd( 5p)     0.00006       5.47715

 WARNING:  1 low occupancy (<1.9990e) core orbital  found on  C    2
           1 low occupancy (<1.9990e) core orbital  found on  C    5

 WARNING:  Population inversion found on atom  C    1
           Population inversion found on atom  C    2
           Population inversion found on atom  C    3
           Population inversion found on atom  C    4
           Population inversion found on atom  C    5
           Population inversion found on atom  C    6
           Population inversion found on atom  H    7
           Population inversion found on atom  H    8
           Population inversion found on atom  H    9
           Population inversion found on atom  H   10
           Population inversion found on atom  S   11
           Population inversion found on atom  H   12
           Population inversion found on atom  C   13
           Population inversion found on atom  H   14
           Population inversion found on atom  O   17


 Summary of Natural Population Analysis:                  
                                                          
                                       Natural Population 
                Natural  -----------------------------------------------
    Atom  No    Charge         Core      Valence    Rydberg      Total
 -----------------------------------------------------------------------
      C    1   -0.24467      1.99907     4.22847    0.01713     6.24467
      C    2    0.33687      1.99857     3.64555    0.01902     5.66313
      C    3   -0.24482      1.99907     4.22863    0.01713     6.24482
      C    4   -0.16645      1.99909     4.14815    0.01920     6.16645
      C    5   -0.20581      1.99886     4.18828    0.01867     6.20581
      C    6   -0.16652      1.99909     4.14823    0.01920     6.16652
      H    7    0.22509      0.00000     0.77391    0.00100     0.77491
      H    8    0.22508      0.00000     0.77392    0.00100     0.77492
      H    9    0.22113      0.00000     0.77773    0.00114     0.77887
      H   10    0.22113      0.00000     0.77773    0.00114     0.77887
      S   11   -0.02514      9.99926     6.00878    0.01710    16.02514
      H   12    0.12004      0.00000     0.87855    0.00141     0.87996
      C   13   -0.15394      1.99930     4.14828    0.00636     6.15394
      H   14    0.18082      0.00000     0.81849    0.00070     0.81918
      H   15    0.15894      0.00000     0.84004    0.00102     0.84106
      H   16    0.15896      0.00000     0.84002    0.00102     0.84104
      O   17   -0.64071      1.99985     6.62753    0.01333     8.64071
 =======================================================================
   * Total *    0.00000     25.99216    47.85227    0.15557    74.00000

                                 Natural Population      
 --------------------------------------------------------
   Core                      25.99216 ( 99.9698% of  26)
   Valence                   47.85227 ( 99.6922% of  48)
   Natural Minimal Basis     73.84443 ( 99.7898% of  74)
   Natural Rydberg Basis      0.15557 (  0.2102% of  74)
 --------------------------------------------------------

    Atom  No          Natural Electron Configuration
 ----------------------------------------------------------------------------
      C    1      [core]2S( 0.95)2p( 3.28)4p( 0.01)
      C    2      [core]2S( 0.87)2p( 2.78)4p( 0.02)
      C    3      [core]2S( 0.95)2p( 3.28)4p( 0.01)
      C    4      [core]2S( 0.94)2p( 3.20)4p( 0.02)
      C    5      [core]2S( 0.94)2p( 3.25)4p( 0.02)
      C    6      [core]2S( 0.94)2p( 3.20)4p( 0.02)
      H    7            1S( 0.77)
      H    8            1S( 0.77)
      H    9            1S( 0.78)
      H   10            1S( 0.78)
      S   11      [core]3S( 1.66)3p( 4.35)4p( 0.01)
      H   12            1S( 0.88)
      C   13      [core]2S( 1.11)2p( 3.04)
      H   14            1S( 0.82)
      H   15            1S( 0.84)
      H   16            1S( 0.84)
      O   17      [core]2S( 1.69)2p( 4.93)3p( 0.01)


 NATURAL BOND ORBITAL ANALYSIS:

                       Occupancies       Lewis Structure    Low   High
           Occ.    -------------------  -----------------   occ   occ
  Cycle   Thresh.   Lewis   Non-Lewis     CR  BD  3C  LP    (L)   (NL)   Dev
 =============================================================================
   1(1)    1.90    70.72307   3.27693     13  17   0   7     3      3    0.43
   2(2)    1.90    70.72307   3.27693     13  17   0   7     3      3    0.43
   3(1)    1.80    70.72307   3.27693     13  17   0   7     3      3    0.43
   4(2)    1.80    70.72307   3.27693     13  17   0   7     3      3    0.43
   5(1)    1.70    70.72307   3.27693     13  17   0   7     3      3    0.43
   6(2)    1.70    70.72307   3.27693     13  17   0   7     3      3    0.43
   7(1)    1.60    72.00850   1.99150     13  19   0   5     1      3    0.42
   8(2)    1.60    72.59751   1.40249     13  20   0   4     0      3    0.43
   9(3)    1.60    72.59434   1.40566     13  20   0   4     0      3    0.43
  10(4)    1.60    72.00850   1.99150     13  19   0   5     1      3    0.42
  11(5)    1.60    72.59751   1.40249     13  20   0   4     0      3    0.43
  12(6)    1.60    72.59434   1.40566     13  20   0   4     0      3    0.43
  13(7)    1.60    72.00850   1.99150     13  19   0   5     1      3    0.42
  14(8)    1.60    72.59751   1.40249     13  20   0   4     0      3    0.43
  15(9)    1.60    72.59434   1.40566     13  20   0   4     0      3    0.43
  16(1)    1.50    72.59751   1.40249     13  20   0   4     0      3    0.43
  17(2)    1.50    72.59434   1.40566     13  20   0   4     0      3    0.43
  18(3)    1.50    72.00850   1.99150     13  19   0   5     1      3    0.42
  19(4)    1.50    72.59751   1.40249     13  20   0   4     0      3    0.43
  20(5)    1.50    72.59434   1.40566     13  20   0   4     0      3    0.43
  21(6)    1.50    72.00850   1.99150     13  19   0   5     1      3    0.42
  22(7)    1.50    72.59751   1.40249     13  20   0   4     0      3    0.43
  23(8)    1.50    72.59434   1.40566     13  20   0   4     0      3    0.43
  24(9)    1.50    72.00850   1.99150     13  19   0   5     1      3    0.42
  25(1)    1.60    72.59751   1.40249     13  20   0   4     0      3    0.43
 -----------------------------------------------------------------------------

 Structure accepted: RESONANCE keyword permits strongly delocalized structure

 WARNING:  1 low occupancy (<1.9990e) core orbital  found on  C    2
           1 low occupancy (<1.9990e) core orbital  found on  C    5

 --------------------------------------------------------
   Core                     25.99218 ( 99.970% of  26)
   Valence Lewis            46.60533 ( 97.094% of  48)
  ==================       ============================
   Total Lewis              72.59751 ( 98.105% of  74)
  -----------------------------------------------------
   Valence non-Lewis         1.30503 (  1.764% of  74)
   Rydberg non-Lewis         0.09746 (  0.132% of  74)
  ==================       ============================
   Total non-Lewis           1.40249 (  1.895% of  74)
 --------------------------------------------------------


       (Occupancy)   Bond orbital/ Coefficients/ Hybrids
 ---------------------------------------------------------------------------------
     1. (1.98046) BD ( 1) C   1 - C   2  
                ( 50.49%)   0.7106* C   1 s( 35.26%)p 1.84( 64.74%)
                                            0.0000  0.5937  0.0104  0.0046  0.0003
                                           -0.4267  0.0433 -0.0012  0.0004 -0.6783
                                            0.0004  0.0097 -0.0006 -0.0564  0.0074
                                           -0.0005  0.0001
                ( 49.51%)   0.7036* C   2 s( 38.48%)p 1.60( 61.52%)
                                            0.0000  0.6203 -0.0049 -0.0002  0.0004
                                            0.3350  0.0230 -0.0041  0.0017  0.7064
                                           -0.0302 -0.0043  0.0036  0.0500  0.0050
                                           -0.0018  0.0006
     2. (1.97133) BD ( 1) C   1 - C   6  
                ( 50.15%)   0.7081* C   1 s( 36.18%)p 1.76( 63.82%)
                                           -0.0002  0.6012  0.0190 -0.0035  0.0001
                                            0.7891 -0.0238 -0.0096  0.0011  0.0192
                                           -0.0432  0.0071 -0.0002  0.1124 -0.0042
                                           -0.0013  0.0000
                ( 49.85%)   0.7061* C   6 s( 35.45%)p 1.82( 64.55%)
                                           -0.0001  0.5951 -0.0154 -0.0054  0.0000
                                           -0.7949  0.0219  0.0103 -0.0018  0.0218
                                           -0.0465  0.0067 -0.0003 -0.1016  0.0039
                                            0.0014 -0.0001
     3. (1.65465) BD ( 2) C   1 - C   6  
                ( 51.92%)   0.7205* C   1 s(  0.00%)p 1.00(100.00%)
                                           -0.0001 -0.0042 -0.0037 -0.0005  0.0000
                                           -0.1378 -0.0065 -0.0022 -0.0003  0.0006
                                           -0.0011 -0.0009  0.0000  0.9899  0.0294
                                            0.0126 -0.0003
                ( 48.08%)   0.6934* C   6 s(  0.00%)p 1.00(100.00%)
                                            0.0001 -0.0036 -0.0008  0.0006  0.0000
                                           -0.1294 -0.0070 -0.0043 -0.0002  0.0020
                                            0.0002  0.0000  0.0002  0.9910  0.0308
                                            0.0131 -0.0004
     4. (1.97929) BD ( 1) C   1 - H   7  
                ( 61.26%)   0.7827* C   1 s( 28.61%)p 2.50( 71.39%)
                                           -0.0003  0.5343 -0.0250 -0.0017 -0.0004
                                           -0.4160 -0.0078 -0.0008  0.0017  0.7331
                                            0.0103  0.0033  0.0006 -0.0563  0.0008
                                            0.0008  0.0002
                ( 38.74%)   0.6224* H   7 s(100.00%)
                                            1.0000  0.0012  0.0011 -0.0001
     5. (1.98049) BD ( 1) C   2 - C   3  
                ( 49.50%)   0.7036* C   2 s( 38.49%)p 1.60( 61.51%)
                                            0.0000  0.6204 -0.0050 -0.0002  0.0004
                                            0.3344  0.0230 -0.0041  0.0017 -0.7065
                                            0.0302  0.0043 -0.0036  0.0511  0.0050
                                           -0.0018  0.0006
                ( 50.50%)   0.7106* C   3 s( 35.28%)p 1.83( 64.72%)
                                            0.0000  0.5938  0.0105  0.0046  0.0003
                                           -0.4269  0.0433 -0.0012  0.0004  0.6784
                                           -0.0005 -0.0096  0.0007 -0.0525  0.0075
                                           -0.0005  0.0001
     6. (1.65436) BD ( 2) C   2 - C   3  
                ( 48.91%)   0.6993* C   2 s(  0.03%)p99.99( 99.97%)
                                            0.0000 -0.0123  0.0109 -0.0021  0.0000
                                           -0.1255 -0.0202  0.0059 -0.0013  0.0008
                                           -0.0009 -0.0004 -0.0003  0.9911  0.0308
                                            0.0145  0.0046
                ( 51.09%)   0.7148* C   3 s(  0.01%)p 1.00( 99.99%)
                                            0.0000 -0.0061 -0.0051 -0.0009  0.0001
                                           -0.1363 -0.0039 -0.0025  0.0005 -0.0037
                                            0.0032  0.0014  0.0001  0.9903  0.0247
                                            0.0077  0.0002
     7. (1.98749) BD ( 1) C   2 - O  17  
                ( 33.51%)   0.5789* C   2 s( 22.91%)p 3.37( 77.09%)
                                           -0.0002  0.4784  0.0135  0.0014 -0.0015
                                           -0.8712  0.0020  0.0086  0.0153  0.0003
                                            0.0000  0.0000  0.0000 -0.1051  0.0232
                                           -0.0046  0.0026
                ( 66.49%)   0.8154* O  17 s( 22.93%)p 3.36( 77.07%)
                                            0.0000  0.4788 -0.0084 -0.0035 -0.0004
                                            0.8657 -0.0063 -0.0128 -0.0024 -0.0005
                                            0.0000  0.0000  0.0000  0.1441  0.0143
                                           -0.0048 -0.0025
     8. (1.97130) BD ( 1) C   3 - C   4  
                ( 50.15%)   0.7082* C   3 s( 36.15%)p 1.77( 63.85%)
                                           -0.0002  0.6010  0.0189 -0.0035  0.0001
                                            0.7892 -0.0237 -0.0096  0.0011 -0.0196
                                            0.0433 -0.0071  0.0002  0.1122 -0.0042
                                           -0.0013 -0.0001
                ( 49.85%)   0.7061* C   4 s( 35.42%)p 1.82( 64.58%)
                                           -0.0001  0.5949 -0.0154 -0.0054  0.0000
                                           -0.7948  0.0219  0.0103 -0.0018 -0.0215
                                            0.0465 -0.0067  0.0003 -0.1041  0.0039
                                            0.0014 -0.0001
     9. (1.97929) BD ( 1) C   3 - H   8  
                ( 61.26%)   0.7827* C   3 s( 28.61%)p 2.50( 71.39%)
                                            0.0003 -0.5343  0.0250  0.0017  0.0004
                                            0.4161  0.0078  0.0008 -0.0017  0.7330
                                            0.0103  0.0033  0.0006  0.0569 -0.0008
                                           -0.0009 -0.0002
                ( 38.74%)   0.6224* H   8 s(100.00%)
                                           -1.0000 -0.0012 -0.0011  0.0001
    10. (1.97992) BD ( 1) C   4 - C   5  
                ( 49.25%)   0.7018* C   4 s( 35.84%)p 1.79( 64.16%)
                                            0.0000  0.5984 -0.0168  0.0043  0.0005
                                            0.4213 -0.0450  0.0016  0.0001  0.6773
                                           -0.0027 -0.0113  0.0002  0.0556 -0.0066
                                            0.0008 -0.0001
                ( 50.75%)   0.7124* C   5 s( 37.38%)p 1.68( 62.62%)
                                            0.0000  0.6112  0.0131  0.0024  0.0001
                                           -0.3518 -0.0128 -0.0045 -0.0049 -0.7062
                                            0.0340 -0.0012 -0.0037 -0.0487 -0.0014
                                           -0.0012 -0.0005
    11. (1.68455) BD ( 2) C   4 - C   5  
                ( 44.79%)   0.6693* C   4 s(  0.00%)p 1.00(100.00%)
                                            0.0000  0.0007 -0.0017 -0.0003  0.0000
                                           -0.1293 -0.0044 -0.0030 -0.0002 -0.0017
                                           -0.0010  0.0004 -0.0003  0.9913  0.0178
                                            0.0127 -0.0014
                ( 55.21%)   0.7430* C   5 s(  0.02%)p99.99( 99.98%)
                                            0.0000  0.0156  0.0014  0.0005  0.0000
                                           -0.1095 -0.0059  0.0007 -0.0008 -0.0003
                                            0.0003 -0.0002  0.0001  0.9936  0.0148
                                           -0.0134 -0.0009
    12. (1.98177) BD ( 1) C   4 - H   9  
                ( 61.13%)   0.7818* C   4 s( 28.79%)p 2.47( 71.21%)
                                            0.0004 -0.5360 -0.0253 -0.0013  0.0006
                                           -0.4133 -0.0111 -0.0001  0.0005  0.7337
                                            0.0127  0.0027  0.0006 -0.0523 -0.0005
                                           -0.0001  0.0002
                ( 38.87%)   0.6235* H   9 s(100.00%)
                                           -1.0000 -0.0018 -0.0006 -0.0009
    13. (1.97988) BD ( 1) C   5 - C   6  
                ( 50.76%)   0.7124* C   5 s( 37.37%)p 1.68( 62.63%)
                                            0.0000  0.6111  0.0131  0.0024  0.0001
                                           -0.3517 -0.0128 -0.0045 -0.0049  0.7064
                                           -0.0340  0.0012  0.0036 -0.0482 -0.0014
                                           -0.0012 -0.0005
                ( 49.24%)   0.7017* C   6 s( 35.82%)p 1.79( 64.18%)
                                            0.0000  0.5982 -0.0167  0.0043  0.0005
                                            0.4208 -0.0450  0.0015  0.0001 -0.6776
                                            0.0028  0.0113 -0.0002  0.0584 -0.0065
                                            0.0008 -0.0001
    14. (1.98316) BD ( 1) C   5 - S  11  
                ( 52.92%)   0.7275* C   5 s( 25.33%)p 2.95( 74.67%)
                                           -0.0001  0.5025 -0.0267 -0.0050 -0.0003
                                            0.8593  0.0236  0.0100 -0.0070  0.0000
                                            0.0000  0.0000  0.0000  0.0871 -0.0041
                                            0.0033 -0.0017
                ( 47.08%)   0.6862* S  11 s( 20.77%)p 3.81( 79.23%)
                                            0.0000  0.0003  0.4533 -0.0471 -0.0037
                                            0.0000  0.0000 -0.0002 -0.8705  0.0579
                                           -0.0006  0.0032  0.0002  0.0000 -0.0002
                                            0.0000  0.0000  0.0000  0.0000  0.0000
                                           -0.1761 -0.0118 -0.0048  0.0046 -0.0003
    15. (1.98175) BD ( 1) C   6 - H  10  
                ( 61.13%)   0.7818* C   6 s( 28.79%)p 2.47( 71.21%)
                                           -0.0004  0.5360  0.0253  0.0013 -0.0006
                                            0.4135  0.0111  0.0001 -0.0005  0.7334
                                            0.0127  0.0027  0.0006  0.0545  0.0005
                                            0.0001 -0.0002
                ( 38.87%)   0.6235* H  10 s(100.00%)
                                            1.0000  0.0018  0.0006  0.0009
    16. (1.98616) BD ( 1) S  11 - H  12  
                ( 56.16%)   0.7494* S  11 s( 15.69%)p 5.37( 84.31%)
                                            0.0000  0.0002 -0.3957  0.0158 -0.0067
                                           -0.0003  0.0001  0.0000 -0.3723  0.0543
                                            0.0000  0.0014  0.0000  0.0000  0.0009
                                            0.0000  0.0000  0.0000  0.0000 -0.0001
                                            0.8372 -0.0269  0.0017  0.0031  0.0003
                ( 43.84%)   0.6621* H  12 s(100.00%)
                                           -1.0000 -0.0019  0.0003 -0.0006
    17. (1.99302) BD ( 1) C  13 - H  14  
                ( 59.15%)   0.7691* C  13 s( 26.42%)p 2.79( 73.58%)
                                           -0.0001  0.5140  0.0022  0.0021  0.0004
                                           -0.8428 -0.0111 -0.0022  0.0002  0.0005
                                            0.0000  0.0000  0.0000 -0.1595 -0.0012
                                           -0.0035  0.0001
                ( 40.85%)   0.6392* H  14 s(100.00%)
                                            1.0000  0.0012  0.0001  0.0000
    18. (1.99588) BD ( 1) C  13 - H  15  
                ( 58.25%)   0.7632* C  13 s( 25.83%)p 2.87( 74.17%)
                                            0.0001  0.5081 -0.0129 -0.0012  0.0000
                                            0.2270  0.0133  0.0039 -0.0008 -0.7078
                                           -0.0032 -0.0030 -0.0014  0.4346 -0.0052
                                           -0.0041  0.0022
                ( 41.75%)   0.6461* H  15 s(100.00%)
                                            1.0000  0.0021 -0.0003  0.0001
    19. (1.99588) BD ( 1) C  13 - H  16  
                ( 58.25%)   0.7632* C  13 s( 25.83%)p 2.87( 74.17%)
                                            0.0001  0.5081 -0.0129 -0.0012  0.0000
                                            0.2274  0.0133  0.0039 -0.0008  0.7063
                                            0.0032  0.0030  0.0014  0.4368 -0.0052
                                           -0.0041  0.0022
                ( 41.75%)   0.6461* H  16 s(100.00%)
                                            1.0000  0.0021 -0.0003  0.0001
    20. (1.98789) BD ( 1) C  13 - O  17  
                ( 31.73%)   0.5633* C  13 s( 22.09%)p 3.53( 77.91%)
                                            0.0001  0.4681  0.0420  0.0011 -0.0007
                                            0.4310  0.0047 -0.0134 -0.0013  0.0010
                                           -0.0001  0.0000  0.0000 -0.7689  0.0431
                                            0.0018  0.0066
                ( 68.27%)   0.8263* O  17 s( 24.06%)p 3.16( 75.94%)
                                           -0.0001  0.4897 -0.0280  0.0032 -0.0001
                                           -0.3996  0.0292  0.0070 -0.0014 -0.0010
                                            0.0000  0.0000  0.0000  0.7737  0.0002
                                           -0.0092 -0.0020
    21. (1.99907) CR ( 1) C   1           s(100.00%)p 0.00(  0.00%)
                                            1.0000  0.0003  0.0000  0.0000  0.0000
                                            0.0000  0.0000  0.0000  0.0000  0.0002
                                            0.0000  0.0000  0.0000  0.0001  0.0000
                                            0.0000  0.0000
    22. (1.99858) CR ( 1) C   2           s(100.00%)p 0.00(  0.00%)
                                            1.0000  0.0001  0.0000  0.0000  0.0000
                                           -0.0002  0.0000  0.0000  0.0000  0.0000
                                            0.0000  0.0000  0.0000  0.0000  0.0000
                                            0.0000  0.0000
    23. (1.99907) CR ( 1) C   3           s(100.00%)p 0.00(  0.00%)
                                            1.0000  0.0003  0.0000  0.0000  0.0000
                                            0.0000  0.0000  0.0000  0.0000 -0.0002
                                            0.0000  0.0000  0.0000  0.0000  0.0000
                                            0.0000  0.0000
    24. (1.99910) CR ( 1) C   4           s(100.00%)p 0.00(  0.00%)
                                            1.0000  0.0003  0.0000  0.0000  0.0000
                                            0.0001  0.0000  0.0000  0.0000 -0.0003
                                            0.0000  0.0000  0.0000  0.0000  0.0000
                                            0.0000  0.0000
    25. (1.99887) CR ( 1) C   5           s(100.00%)
                                            1.0000  0.0001  0.0000  0.0000  0.0000
                                            0.0001  0.0000  0.0000  0.0000  0.0000
                                            0.0000  0.0000  0.0000  0.0000  0.0000
                                            0.0000  0.0000
    26. (1.99910) CR ( 1) C   6           s(100.00%)p 0.00(  0.00%)
                                            1.0000  0.0003  0.0000  0.0000  0.0000
                                            0.0001  0.0000  0.0000  0.0000  0.0003
                                            0.0000  0.0000  0.0000 -0.0001  0.0000
                                            0.0000  0.0000
    27. (2.00000) CR ( 1) S  11           s(100.00%)
                                            1.0000  0.0000  0.0000  0.0000  0.0000
                                            0.0000  0.0000  0.0000  0.0000  0.0000
                                            0.0000  0.0000  0.0000  0.0000  0.0000
                                            0.0000  0.0000  0.0000  0.0000  0.0000
                                            0.0000  0.0000  0.0000  0.0000  0.0000
    28. (1.99942) CR ( 2) S  11           s(100.00%)p 0.00(  0.00%)
                                            0.0000  1.0000  0.0000  0.0000  0.0000
                                            0.0000  0.0000  0.0000  0.0003  0.0000
                                            0.0000  0.0000  0.0000  0.0000  0.0000
                                            0.0000  0.0000  0.0000  0.0000  0.0000
                                            0.0000  0.0000  0.0000  0.0000  0.0000
    29. (1.99990) CR ( 3) S  11           s(  0.00%)p 1.00(100.00%)
                                            0.0000  0.0000 -0.0001  0.0000  0.0000
                                            0.0000  0.0000  1.0000 -0.0002  0.0000
                                            0.0000  0.0000  0.0000  0.0000  0.0000
                                            0.0000  0.0000  0.0000  0.0000  0.0000
                                           -0.0001  0.0000  0.0000  0.0000  0.0000
    30. (1.99999) CR ( 4) S  11           s(  0.00%)p 1.00(100.00%)
                                            0.0000  0.0000  0.0000  0.0000  0.0000
                                            0.0000  0.0000  0.0000  0.0000  0.0000
                                            0.0000  0.0000  0.0000  1.0000  0.0001
                                            0.0000  0.0000  0.0000  0.0000  0.0000
                                            0.0000  0.0000  0.0000  0.0000  0.0000
    31. (1.99995) CR ( 5) S  11           s(  0.00%)p 1.00(100.00%)
                                            0.0000  0.0000  0.0000  0.0000  0.0000
                                            0.0000  0.0000  0.0000  0.0000  0.0000
                                            0.0000  0.0000  0.0000  0.0000  0.0000
                                            0.0000  0.0000  0.0000  0.0000  1.0000
                                            0.0001  0.0000  0.0000  0.0000  0.0000
    32. (1.99929) CR ( 1) C  13           s(100.00%)p 0.00(  0.00%)
                                            1.0000 -0.0001  0.0000  0.0000  0.0000
                                           -0.0002  0.0000  0.0000  0.0000  0.0000
                                            0.0000  0.0000  0.0000  0.0000  0.0000
                                            0.0000  0.0000
    33. (1.99985) CR ( 1) O  17           s(100.00%)
                                            1.0000  0.0001  0.0000  0.0000  0.0000
                                            0.0000  0.0000  0.0000  0.0000  0.0000
                                            0.0000  0.0000  0.0000  0.0000  0.0000
                                            0.0000  0.0000
    34. (1.98256) LP ( 1) S  11           s( 63.80%)p 0.57( 36.20%)
                                            0.0000 -0.0001  0.7985  0.0182 -0.0007
                                           -0.0001  0.0000  0.0002  0.3104 -0.0009
                                            0.0003  0.0011 -0.0004  0.0000  0.0025
                                            0.0001  0.0000  0.0000  0.0000  0.0000
                                            0.5154  0.0059 -0.0003 -0.0035 -0.0003
    35. (1.97325) LP ( 2) S  11           s(  0.00%)p 1.00(100.00%)
                                            0.0000  0.0000  0.0016  0.0000  0.0000
                                            0.0000  0.0000  0.0000  0.0006  0.0000
                                            0.0000  0.0000  0.0000  0.0001 -0.9991
                                           -0.0423  0.0013 -0.0022 -0.0002  0.0000
                                            0.0020  0.0001  0.0000  0.0000  0.0000
    36. (1.97302) LP ( 1) O  17           s( 53.09%)p 0.88( 46.91%)
                                           -0.0001  0.7284  0.0172  0.0004  0.0002
                                           -0.3003 -0.0020 -0.0068 -0.0016  0.0045
                                            0.0000  0.0000  0.0000 -0.6155 -0.0066
                                           -0.0051 -0.0033
    37. (1.96799) LP ( 2) O  17           s(  0.00%)p 1.00(100.00%)
                                            0.0000  0.0025  0.0001  0.0000  0.0000
                                           -0.0014  0.0000  0.0000  0.0000 -0.9999
                                           -0.0053 -0.0094  0.0000 -0.0036  0.0000
                                            0.0000  0.0000
    38. (0.00568) RY*( 1) C   1           s(  0.60%)p99.99( 99.40%)
                                            0.0000  0.0215  0.0261  0.0667 -0.0196
                                            0.0134 -0.5439  0.0203 -0.0047 -0.0242
                                            0.8317 -0.0393  0.0398  0.0008 -0.0459
                                            0.0038  0.0024
    39. (0.00282) RY*( 2) C   1           s(  0.65%)p99.99( 99.35%)
                                            0.0000 -0.0052  0.0584 -0.0542 -0.0093
                                           -0.0500 -0.8117  0.0861  0.1129 -0.0248
                                           -0.5369  0.0537  0.0525 -0.0086 -0.1295
                                            0.0031  0.0239
    40. (0.00097) RY*( 3) C   1           s(  1.11%)p89.28( 98.89%)
                                            0.0000  0.0013  0.0854 -0.0595 -0.0156
                                           -0.0070  0.1410 -0.0287  0.0697  0.0023
                                            0.0408 -0.0191  0.0258  0.0309 -0.9630
                                           -0.1597 -0.0826
    41. (0.00042) RY*( 4) C   1           s( 93.80%)p 0.07(  6.20%)
                                            0.0000 -0.0052  0.9504 -0.1855 -0.0163
                                           -0.0171  0.0539 -0.0439  0.1683  0.0253
                                            0.0366  0.0453 -0.1043 -0.0019  0.1160
                                           -0.0096  0.0116
    42. (0.00019) RY*( 5) C   1           s( 24.55%)p 3.07( 75.45%)
                                            0.0000  0.0016  0.1507  0.4715  0.0208
                                            0.0050  0.0633  0.7901 -0.1951  0.0092
                                           -0.0090  0.2733 -0.0412  0.0047 -0.0545
                                            0.0575 -0.0733
    43. (0.00012) RY*( 6) C   1           s( 20.88%)p 3.79( 79.12%)
                                            0.0000 -0.0039  0.0276  0.4535  0.0486
                                            0.0038  0.0814 -0.1578  0.6081  0.0048
                                            0.0024  0.1208  0.5790 -0.0017  0.0136
                                            0.1991  0.0096
    44. (0.00006) RY*( 7) C   1           s( 28.69%)p 2.49( 71.31%)
    45. (0.00007) RY*( 8) C   1           s( 13.45%)p 6.43( 86.55%)
    46. (0.00004) RY*( 9) C   1           s(  1.75%)p56.08( 98.25%)
    47. (0.00001) RY*(10) C   1           s( 93.64%)p 0.07(  6.36%)
    48. (0.00001) RY*(11) C   1           s( 20.31%)p 3.92( 79.69%)
    49. (0.00000) RY*(12) C   1           s(  0.54%)p99.99( 99.46%)
    50. (0.00627) RY*( 1) C   2           s(  1.62%)p60.70( 98.38%)
                                            0.0000 -0.0305  0.1228  0.0007  0.0137
                                           -0.0122  0.9883  0.0495  0.0051 -0.0001
                                           -0.0011  0.0001  0.0002  0.0150  0.0593
                                           -0.0143 -0.0224
    51. (0.00424) RY*( 2) C   2           s(  0.00%)p 1.00(100.00%)
                                            0.0000  0.0000  0.0008  0.0000  0.0000
                                            0.0002 -0.0012 -0.0003 -0.0001 -0.0423
                                           -0.9901  0.0805  0.1066 -0.0008  0.0007
                                           -0.0001  0.0002
    52. (0.00194) RY*( 3) C   2           s( 13.21%)p 6.57( 86.79%)
                                            0.0000 -0.0126  0.3625 -0.0143  0.0180
                                            0.0262 -0.1008  0.0273 -0.0687  0.0000
[...]
  36. LP (   1) O  17                / 50. RY*(   1) C   2                    2.89    2.10    0.070
  36. LP (   1) O  17                / 52. RY*(   3) C   2                    0.58    1.68    0.028
  36. LP (   1) O  17                /141. RY*(   1) C  13                    1.24    2.00    0.045
  36. LP (   1) O  17                /174. BD*(   1) C   1 - C   2            7.84    1.57    0.099
  36. LP (   1) O  17                /178. BD*(   1) C   2 - C   3            0.55    1.57    0.026
  36. LP (   1) O  17                /190. BD*(   1) C  13 - H  14            3.06    1.39    0.059
  36. LP (   1) O  17                /191. BD*(   1) C  13 - H  15            0.64    1.37    0.026
  36. LP (   1) O  17                /192. BD*(   1) C  13 - H  16            0.77    1.37    0.029
  37. LP (   2) O  17                /175. BD*(   2) C   1 - C   2           31.75    0.64    0.136
  37. LP (   2) O  17                /191. BD*(   1) C  13 - H  15            6.09    1.07    0.074
  37. LP (   2) O  17                /192. BD*(   1) C  13 - H  16            6.07    1.07    0.074
 175. BD*(   2) C   1 - C   2        / 40. RY*(   3) C   1                    4.10    0.39    0.085
 175. BD*(   2) C   1 - C   2        / 53. RY*(   4) C   2                    1.57    0.69    0.070
 175. BD*(   2) C   1 - C   2        / 64. RY*(   3) C   3                    0.70    0.48    0.039
 175. BD*(   2) C   1 - C   2        /162. RY*(   1) O  17                    0.57    0.81    0.045
 175. BD*(   2) C   1 - C   2        /181. BD*(   2) C   3 - C   4          456.90    0.01    0.120
 181. BD*(   2) C   3 - C   4        / 64. RY*(   3) C   3                    3.31    0.46    0.090
 181. BD*(   2) C   3 - C   4        / 76. RY*(   3) C   4                    3.43    0.43    0.089
 186. BD*(   2) C   5 - C   6        / 40. RY*(   3) C   1                    0.76    0.40    0.037
 186. BD*(   2) C   5 - C   6        / 76. RY*(   3) C   4                    0.81    0.45    0.040
 186. BD*(   2) C   5 - C   6        / 88. RY*(   3) C   5                    2.15    0.53    0.071
 186. BD*(   2) C   5 - C   6        /100. RY*(   3) C   6                    5.91    0.44    0.107
 186. BD*(   2) C   5 - C   6        /181. BD*(   2) C   3 - C   4          305.08    0.02    0.118
 186. BD*(   2) C   5 - C   6        /189. BD*(   1) S  11 - H  12            1.53    0.17    0.034


 Natural Bond Orbitals (Summary):

                                                            Principal Delocalizations
           NBO                        Occupancy    Energy   (geminal,vicinal,remote)
 ====================================================================================
 Molecular unit  1  (C7H8OS)
     1. BD (   1) C   1 - C   2          1.98014    -0.95310  178(g),176(g),99(v),188(v)
                                                    182(v),62(v),177(g),98(v)
                                                    163(v),63(v)
     2. BD (   2) C   1 - C   2          1.67048    -0.33373  186(v),181(v),64(v),100(v)
                                                    162(v)
     3. BD (   1) C   1 - C   6          1.97246    -0.92881  187(v),179(v),185(g),174(g)
                                                    51(v),87(v),177(g),86(v)
                                                    188(g)
     4. BD (   1) C   1 - H   7          1.98059    -0.72012  178(v),185(v),50(v),176(g)
                                                    98(v),174(g),179(v),188(v)
     5. BD (   1) C   2 - C   3          1.97678    -0.93804  174(g),193(v),180(g),177(v)
                                                    75(v),184(v),182(g),38(v)
                                                    163(v),39(v),74(v)
     6. BD (   1) C   2 - O  17          1.99273    -1.10783  180(v),176(v),142(v),62(v)
                                                    174(g)
     7. BD (   1) C   3 - C   4          1.97419    -0.93451  187(v),183(g),179(v),178(g)
                                                    50(v),87(v),182(g),86(v)
                                                    184(g),51(v)
     8. BD (   2) C   3 - C   4          1.68743    -0.32349  175(v),186(v),88(v),53(v)
     9. BD (   1) C   3 - H   8          1.98016    -0.70367  174(v),183(v),179(v),180(g)
                                                    74(v),178(g),51(v),184(v)
                                                    50(v)
    10. BD (   1) C   4 - C   5          1.98163    -0.94836  185(g),180(g),188(v),182(v)
                                                    63(v),98(v),184(g),62(v)
                                                    99(v)
    11. BD (   1) C   4 - H   9          1.98226    -0.71120  185(v),178(v),86(v),62(v)
                                                    183(g),180(g),182(v)
    12. BD (   1) C   5 - C   6          1.98194    -0.95702  183(g),176(g),184(v),177(v)
                                                    74(v),38(v),188(g),39(v)
                                                    75(v)
    13. BD (   2) C   5 - C   6          1.70904    -0.34063  181(v),175(v),76(v),189(v)
                                                    40(v)
    14. BD (   1) C   5 - S  11          1.98239    -0.76313  176(v),180(v),98(v),74(v)
                                                    188(v),184(v)
    15. BD (   1) C   6 - H  10          1.98212    -0.71263  183(v),174(v),86(v),185(g)
                                                    38(v),176(g),177(v)
    16. BD (   1) S  11 - H  12          1.98694    -0.69056  186(v),187(g),185(v)
    17. BD (   1) C  13 - H  14          1.99280    -0.72203  179(v),164(v)
    18. BD (   1) C  13 - H  15          1.99578    -0.72959  193(g),162(v)
    19. BD (   1) C  13 - H  16          1.99581    -0.72957  162(v),193(g)
    20. BD (   1) C  13 - O  17          1.99357    -1.00727  178(v),51(v),50(v)
    21. CR (   1) C   1                  1.99916   -11.10692  50(v),99(v),178(v),51(v)
                                                    185(v),179(v)
    22. CR (   1) C   2                  1.99885   -11.19083  179(g),63(v),39(v),178(g)
                                                    193(v),174(g),180(v),176(v)
    23. CR (   1) C   3                  1.99917   -11.09915  51(v),75(v),174(v),183(v)
                                                    74(v)
    24. CR (   1) C   4                  1.99912   -11.10772  87(v),63(v),187(v),185(v)
                                                    178(v),86(v),116(v)
    25. CR (   1) C   5                  1.99882   -11.15060  187(g),75(v),99(v),176(v)
                                                    185(g),180(v),183(g)
    26. CR (   1) C   6                  1.99912   -11.10994  87(v),39(v),187(v),183(v)
                                                    174(v),185(g),86(v)
    27. CR (   1) S  11                  2.00000   -90.77095   
    28. CR (   2) S  11                  1.99956    -9.94347  86(v),183(v),185(v),138(v)
    29. CR (   3) S  11                  1.99993    -6.64987   
    30. CR (   4) S  11                  1.99999    -6.64945   
    31. CR (   5) S  11                  1.99996    -6.65042   
    32. CR (   1) C  13                  1.99929   -11.17337  193(g),179(v),154(v)
    33. CR (   1) O  17                  1.99979   -20.38831  50(v),141(v),174(v)
    34. LP (   1) S  11                  1.98818    -0.82479  186(v),183(v),185(v),86(v)
    35. LP (   2) S  11                  1.97713    -0.37615  185(v),183(v),87(v),176(r)
                                                    180(r)
    36. LP (   1) O  17                  1.97583    -0.78803  174(v),190(v),50(v),141(v)
                                                    192(v),191(v),52(v),178(v)
    37. LP (   2) O  17                  1.90734    -0.49133  175(v),191(v),192(v)
    38. RY*(   1) C   1                  0.00484     1.24371   
    39. RY*(   2) C   1                  0.00190     1.49681   
    40. RY*(   3) C   1                  0.00110     0.53886   
    41. RY*(   4) C   1                  0.00042     0.69481   
    42. RY*(   5) C   1                  0.00022     0.97676   
    43. RY*(   6) C   1                  0.00013     0.96879   
    44. RY*(   7) C   1                  0.00009     1.16574   
    45. RY*(   8) C   1                  0.00006     0.93064   
    46. RY*(   9) C   1                  0.00003     3.56892   
    47. RY*(  10) C   1                  0.00004     3.73487   
    48. RY*(  11) C   1                  0.00000    21.36585   
    49. RY*(  12) C   1                  0.00000     3.10068   
    50. RY*(   1) C   2                  0.00682     1.31685   
    51. RY*(   2) C   2                  0.00405     1.38388   
    52. RY*(   3) C   2                  0.00083     0.89340   
    53. RY*(   4) C   2                  0.00059     0.83161   
    54. RY*(   5) C   2                  0.00025     0.82192   
    55. RY*(   6) C   2                  0.00019     2.34491   
    56. RY*(   7) C   2                  0.00007     2.13246   
    57. RY*(   8) C   2                  0.00003     1.15801   
    58. RY*(   9) C   2                  0.00001    23.07041   
    59. RY*(  10) C   2                  0.00002     2.50998   
    60. RY*(  11) C   2                  0.00002     0.47156   
    61. RY*(  12) C   2                  0.00000     3.04477   
    62. RY*(   1) C   3                  0.00614     1.30178   
    63. RY*(   2) C   3                  0.00295     1.24295   
    64. RY*(   3) C   3                  0.00091     0.61986   
    65. RY*(   4) C   3                  0.00040     0.95199   
    66. RY*(   5) C   3                  0.00027     0.59600   
    67. RY*(   6) C   3                  0.00009     2.42607   
    68. RY*(   7) C   3                  0.00006     1.17912   
    69. RY*(   8) C   3                  0.00004     5.35453   
    70. RY*(   9) C   3                  0.00003     0.77662   
    71. RY*(  10) C   3                  0.00000    20.79953   
    72. RY*(  11) C   3                  0.00001     1.27496   
    73. RY*(  12) C   3                  0.00000     3.08365   
    74. RY*(   1) C   4                  0.00669     1.11593   
    75. RY*(   2) C   4                  0.00291     1.09400   
    76. RY*(   3) C   4                  0.00114     0.58987   
    77. RY*(   4) C   4                  0.00056     1.09205   
    78. RY*(   5) C   4                  0.00018     2.01018   
    79. RY*(   6) C   4                  0.00011     1.37490   
    80. RY*(   7) C   4                  0.00006     0.61882   
    81. RY*(   8) C   4                  0.00005     4.49093   
    82. RY*(   9) C   4                  0.00001     1.71383   
    83. RY*(  10) C   4                  0.00000    21.31932   
    84. RY*(  11) C   4                  0.00001     0.91723   
    85. RY*(  12) C   4                  0.00000     3.08504   
    86. RY*(   1) C   5                  0.00722     1.06416   
    87. RY*(   2) C   5                  0.00561     0.91279   
    88. RY*(   3) C   5                  0.00108     0.66763   
    89. RY*(   4) C   5                  0.00035     1.08377   
    90. RY*(   5) C   5                  0.00021     0.77626   
    91. RY*(   6) C   5                  0.00009     0.48768   
    92. RY*(   7) C   5                  0.00006     1.73890   
    93. RY*(   8) C   5                  0.00003     2.80680   
    94. RY*(   9) C   5                  0.00003     2.44771   
    95. RY*(  10) C   5                  0.00001     2.04436   
    96. RY*(  11) C   5                  0.00000    22.70933   
    97. RY*(  12) C   5                  0.00000     3.06017   
    98. RY*(   1) C   6                  0.00689     1.09356   
    99. RY*(   2) C   6                  0.00314     1.07485   
   100. RY*(   3) C   6                  0.00110     0.57732   
   101. RY*(   4) C   6                  0.00063     1.09011   
   102. RY*(   5) C   6                  0.00021     1.25409   
   103. RY*(   6) C   6                  0.00010     2.37404   
   104. RY*(   7) C   6                  0.00005     4.01115   
   105. RY*(   8) C   6                  0.00004     0.55100   
   106. RY*(   9) C   6                  0.00002     2.49083   
   107. RY*(  10) C   6                  0.00001     2.49248   
   108. RY*(  11) C   6                  0.00000    19.23566   
   109. RY*(  12) C   6                  0.00000     3.16291   
   110. RY*(   1) H   7                  0.00074     0.77449   
   111. RY*(   2) H   7                  0.00018     2.26199   
   112. RY*(   3) H   7                  0.00009     0.41795   
   113. RY*(   1) H   8                  0.00079     1.08780   
   114. RY*(   2) H   8                  0.00018     2.08595   
   115. RY*(   3) H   8                  0.00006     0.25283   
   116. RY*(   1) H   9                  0.00063     1.21368   
   117. RY*(   2) H   9                  0.00024     0.92190   
   118. RY*(   3) H   9                  0.00015     1.28307   
   119. RY*(   1) H  10                  0.00066     1.11625   
   120. RY*(   2) H  10                  0.00025     0.85763   
   121. RY*(   3) H  10                  0.00018     1.44423   
   122. RY*(   1) S  11                  0.00141     0.63700   
   123. RY*(   2) S  11                  0.00053     0.44710   
   124. RY*(   3) S  11                  0.00037     0.58670   
   125. RY*(   4) S  11                  0.00016     0.83335   
   126. RY*(   5) S  11                  0.00002     0.45434   
   127. RY*(   6) S  11                  0.00002     0.35621   
   128. RY*(   7) S  11                  0.00002     1.87947   
   129. RY*(   8) S  11                  0.00000    18.28720   
   130. RY*(   9) S  11                  0.00000    14.69548   
   131. RY*(  10) S  11                  0.00001     0.24441   
   132. RY*(  11) S  11                  0.00000     2.00836   
   133. RY*(  12) S  11                  0.00000    18.09766   
   134. RY*(  13) S  11                  0.00000   185.55347   
   135. RY*(  14) S  11                  0.00000     0.54521   
   136. RY*(  15) S  11                  0.00000     2.25332   
   137. RY*(  16) S  11                  0.00000    18.06792   
   138. RY*(   1) H  12                  0.00072     0.60864   
   139. RY*(   2) H  12                  0.00019     0.91698   
   140. RY*(   3) H  12                  0.00008     1.83840   
   141. RY*(   1) C  13                  0.00173     1.21142   
   142. RY*(   2) C  13                  0.00128     1.06306   
   143. RY*(   3) C  13                  0.00039     0.57308   
   144. RY*(   4) C  13                  0.00024     0.90772   
   145. RY*(   5) C  13                  0.00016     0.83622   
   146. RY*(   6) C  13                  0.00007     0.77528   
   147. RY*(   7) C  13                  0.00003     1.55424   
   148. RY*(   8) C  13                  0.00001     2.12584   
   149. RY*(   9) C  13                  0.00000    23.82664   
   150. RY*(  10) C  13                  0.00001     2.53226   
   151. RY*(  11) C  13                  0.00001     0.84624   
   152. RY*(  12) C  13                  0.00000     2.82367   
   153. RY*(   1) H  14                  0.00046     0.56112   
   154. RY*(   2) H  14                  0.00008     2.51146   
   155. RY*(   3) H  14                  0.00006     0.30811   
   156. RY*(   1) H  15                  0.00095     0.58549   
   157. RY*(   2) H  15                  0.00014     2.10648   
   158. RY*(   3) H  15                  0.00007     0.75290   
   159. RY*(   1) H  16                  0.00098     0.58654   
   160. RY*(   2) H  16                  0.00015     2.01969   
   161. RY*(   3) H  16                  0.00007     0.84063   
   162. RY*(   1) O  17                  0.00420     0.95024   
   163. RY*(   2) O  17                  0.00396     0.77765   
   164. RY*(   3) O  17                  0.00112     1.37769   
   165. RY*(   4) O  17                  0.00064     0.60224   
   166. RY*(   5) O  17                  0.00024     1.21805   
   167. RY*(   6) O  17                  0.00018     1.29035   
   168. RY*(   7) O  17                  0.00003     0.71170   
   169. RY*(   8) O  17                  0.00001     5.48123   
   170. RY*(   9) O  17                  0.00002     1.21310   
   171. RY*(  10) O  17                  0.00001     5.79678   
   172. RY*(  11) O  17                  0.00000    51.02337   
   173. RY*(  12) O  17                  0.00000     5.50245   
   174. BD*(   1) C   1 - C   2          0.02398     0.78370   
   175. BD*(   2) C   1 - C   2          0.35192     0.14436  186(v),181(v),40(g),53(g)
                                                    64(v),162(v)
   176. BD*(   1) C   1 - C   6          0.01491     0.79029   
   177. BD*(   1) C   1 - H   7          0.01081     0.64921   
   178. BD*(   1) C   2 - C   3          0.01875     0.78544   
   179. BD*(   1) C   2 - O  17          0.02448     0.54080   
   180. BD*(   1) C   3 - C   4          0.01378     0.80837   
   181. BD*(   2) C   3 - C   4          0.29811     0.15724  175(v),186(v),76(g),64(g)
   182. BD*(   1) C   3 - H   8          0.01001     0.65892   
   183. BD*(   1) C   4 - C   5          0.02424     0.78688   
   184. BD*(   1) C   4 - H   9          0.01142     0.66100   
   185. BD*(   1) C   5 - C   6          0.02347     0.79768   
   186. BD*(   2) C   5 - C   6          0.35664     0.13846  175(v),181(v),100(g),88(g)
                                                    189(v),76(v),40(v)
   187. BD*(   1) C   5 - S  11          0.02262     0.30544   
   188. BD*(   1) C   6 - H  10          0.01151     0.65717   
   189. BD*(   1) S  11 - H  12          0.00866     0.31180   
   190. BD*(   1) C  13 - H  14          0.00585     0.60538   
   191. BD*(   1) C  13 - H  15          0.01214     0.58078   
   192. BD*(   1) C  13 - H  16          0.01234     0.58100   
   193. BD*(   1) C  13 - O  17          0.00765     0.46014   
       -------------------------------
              Total Lewis   72.64048  ( 98.1628%)
        Valence non-Lewis    1.26329  (  1.7072%)
        Rydberg non-Lewis    0.09623  (  0.1300%)
       -------------------------------
            Total unit  1   74.00000  (100.0000%)
           Charge unit  1    0.00000
 1|1|UNPC-DESKTOP-2TIS01M|FOpt|RMP2-FC|6-311++G|C7H8O1S1|APPLE|20-Aug-2
 020|0||# opt mp2/6-311++g pop=nbo geom=connectivity||Title Card Requir
 ed||0,1|C,-9.119317869,-3.1005575449,-1.1216505231|C,-7.7284502936,-2.
 9841102191,-1.2997375221|C,-7.174298991,-1.7905136463,-1.8038468577|C,
 -7.9961007594,-0.6744764738,-2.0118811609|C,-9.3931329462,-0.784286062
 2,-1.8488238107|C,-9.9377089285,-1.9698383817,-1.3338623497|H,-9.56540
 09143,-4.0049613562,-0.7191575598|H,-6.0956866088,-1.7270809349,-1.919
 0465652|H,-7.5693571629,0.2555911943,-2.376771262|H,-11.0110337387,-2.
 0464830842,-1.1835152016|S,-10.4764898718,0.7276693799,-2.024541534|H,
 -10.7308383354,0.5827738256,-3.3806848962|C,-7.3222384797,-5.297061207
 ,-0.55389627|H,-6.4389656107,-5.9283514963,-0.4728022055|H,-7.77070504
 93,-5.1431359642,0.4337876612|H,-8.0483237416,-5.7479928712,-1.2391657
 755|O,-6.8100346792,-4.0304780378,-1.097717627||Version=IA32W-G09RevC.
 01|State=1-A|HF=-742.0091863|MP2=-742.8777889|RMSD=4.786e-009|RMSF=1.5
 30e-005|Dipole=-0.1121593,-1.0114024,-0.0422967|PG=C01 [X(C7H8O1S1)]||
 @


 COMMON SENSE IS NOT SO COMMON.   -- VOLTAIRE
 Job cpu time:  0 days  2 hours 44 minutes 43.0 seconds.
 File lengths (MBytes):  RWF=   2262 Int=      0 D2E=      0 Chk=      4 Scr=      1
 Normal termination of Gaussian 09 at Thu Aug 20 03:11:20 2020.
