 Entering Link 1 = C:\G09W\l1.exe PID=      8024.
  
 Copyright (c) 1988,1990,1992,1993,1995,1998,2003,2009,2011,
            Gaussian, Inc.  All Rights Reserved.
  
 This is part of the Gaussian(R) 09 program.  It is based on
 the Gaussian(R) 03 system (copyright 2003, Gaussian, Inc.),
 the Gaussian(R) 98 system (copyright 1998, Gaussian, Inc.),
 the Gaussian(R) 94 system (copyright 1995, Gaussian, Inc.),
 the Gaussian 92(TM) system (copyright 1992, Gaussian, Inc.),
 the Gaussian 90(TM) system (copyright 1990, Gaussian, Inc.),
 the Gaussian 88(TM) system (copyright 1988, Gaussian, Inc.),
 the Gaussian 86(TM) system (copyright 1986, Carnegie Mellon
 University), and the Gaussian 82(TM) system (copyright 1983,
 Carnegie Mellon University). Gaussian is a federally registered
 trademark of Gaussian, Inc.
  
 This software contains proprietary and confidential information,
 including trade secrets, belonging to Gaussian, Inc.
  
 This software is provided under written license and may be
 used, copied, transmitted, or stored only in accord with that
 written license.
  
 The following legend is applicable only to US Government
 contracts under FAR:
  
                    RESTRICTED RIGHTS LEGEND
  
 Use, reproduction and disclosure by the US Government is
 subject to restrictions as set forth in subparagraphs (a)
 and (c) of the Commercial Computer Software - Restricted
 Rights clause in FAR 52.227-19.
  
 Gaussian, Inc.
 340 Quinnipiac St., Bldg. 40, Wallingford CT 06492
  
  
 ---------------------------------------------------------------
 Warning -- This program may not be used in any manner that
 competes with the business of Gaussian, Inc. or will provide
 assistance to any competitor of Gaussian, Inc.  The licensee
 of this program is prohibited from giving any competitor of
 Gaussian, Inc. access to this program.  By using this program,
 the user acknowledges that Gaussian, Inc. is engaged in the
 business of creating and licensing software in the field of
 computational chemistry and represents and warrants to the
 licensee that it is not a competitor of Gaussian, Inc. and that
 it will not use this program in any manner prohibited above.
 ---------------------------------------------------------------
  

 Cite this work as:
 Gaussian 09, Revision C.01,
 M. J. Frisch, G. W. Trucks, H. B. Schlegel, G. E. Scuseria, 
 M. A. Robb, J. R. Cheeseman, G. Scalmani, V. Barone, B. Mennucci, 
 G. A. Petersson, H. Nakatsuji, M. Caricato, X. Li, H. P. Hratchian, 
 A. F. Izmaylov, J. Bloino, G. Zheng, J. L. Sonnenberg, M. Hada, 
 M. Ehara, K. Toyota, R. Fukuda, J. Hasegawa, M. Ishida, T. Nakajima, 
 Y. Honda, O. Kitao, H. Nakai, T. Vreven, J. A. Montgomery, Jr., 
 J. E. Peralta, F. Ogliaro, M. Bearpark, J. J. Heyd, E. Brothers, 
 K. N. Kudin, V. N. Staroverov, T. Keith, R. Kobayashi, J. Normand, 
 K. Raghavachari, A. Rendell, J. C. Burant, S. S. Iyengar, J. Tomasi, 
 M. Cossi, N. Rega, J. M. Millam, M. Klene, J. E. Knox, J. B. Cross, 
 V. Bakken, C. Adamo, J. Jaramillo, R. Gomperts, R. E. Stratmann, 
 O. Yazyev, A. J. Austin, R. Cammi, C. Pomelli, J. W. Ochterski, 
 R. L. Martin, K. Morokuma, V. G. Zakrzewski, G. A. Voth, 
 P. Salvador, J. J. Dannenberg, S. Dapprich, A. D. Daniels, 
 O. Farkas, J. B. Foresman, J. V. Ortiz, J. Cioslowski, 
 and D. J. Fox, Gaussian, Inc., Wallingford CT, 2010.
 
 ******************************************
 Gaussian 09:  IA32W-G09RevC.01 23-Sep-2011
                20-Aug-2020 
 ******************************************
 %chk=C:\G09W\Scratch\E.chk
 --------------------------------------------
 # opt mp2/6-311++g pop=nbo geom=connectivity
 --------------------------------------------
 1/18=20,19=15,38=1,57=2/1,3;
 2/9=110,12=2,17=6,18=5,40=1/2;
 3/5=4,6=6,7=1010,11=9,16=1,25=1,30=1,71=1/1,2,3;
 4//1;
 5/5=2,38=5/2;
 8/6=4,10=2/1;
 9/15=2,16=-3/6;
 10/5=1/2;
 6/7=2,8=2,9=2,10=2/1,7;
 7/12=2/1,2,3,16;
 1/18=20,19=15/3(2);
 2/9=110/2;
 99//99;
 2/9=110/2;
 3/5=4,6=6,7=1010,11=9,16=1,25=1,30=1,71=1/1,2,3;
 4/5=5,16=3/1;
 5/5=2,38=5/2;
 8/6=4,10=2/1;
 9/15=2,16=-3/6;
 10/5=1/2;
 7/12=2/1,2,3,16;
 1/18=20,19=15/3(-8);
 2/9=110/2;
 6/7=2,8=2,9=2,10=2/1,7;
 99//99;
 -------------------
 Title Card Required
 -------------------
 Charge =  0 Multiplicity = 1
 Symbolic Z-Matrix:
 C                    -3.72409  -0.49888  -0.00063 
 C                    -2.32893  -0.49888  -0.00063 
 C                    -1.6314    0.70888  -0.00063 
 C                    -2.32905   1.91738  -0.00183 
 C                    -3.72388   1.91731  -0.00231 
 C                    -4.42148   0.7091   -0.00132 
 H                    -4.27385  -1.45119  -0.00018 
 H                    -1.77943  -1.45139   0.00068 
 H                    -4.274     2.86959  -0.00327 
 H                    -5.52108   0.70928  -0.0015 
 C                    -1.55855   3.25077  -0.00192 
 H                    -0.6002    3.09982   0.55198 
 H                    -2.16717   4.00532   0.55328 
 S                     0.1486    0.709     0.00039 
 H                     0.58565  -0.39444   0.55493 
 H                    -1.36982   3.57873  -1.00278 
 

 GradGradGradGradGradGradGradGradGradGradGradGradGradGradGradGradGradGrad
 Berny optimization.
 Initialization pass.
                           ----------------------------
                           !    Initial Parameters    !
                           ! (Angstroms and Degrees)  !
 --------------------------                            --------------------------
 ! Name  Definition              Value          Derivative Info.                !
 --------------------------------------------------------------------------------
 ! R1    R(1,2)                  1.3952         estimate D2E/DX2                !
 ! R2    R(1,6)                  1.3948         estimate D2E/DX2                !
 ! R3    R(1,7)                  1.0996         estimate D2E/DX2                !
 ! R4    R(2,3)                  1.3947         estimate D2E/DX2                !
 ! R5    R(2,8)                  1.0997         estimate D2E/DX2                !
 ! R6    R(3,4)                  1.3954         estimate D2E/DX2                !
 ! R7    R(3,14)                 1.78           estimate D2E/DX2                !
 ! R8    R(4,5)                  1.3948         estimate D2E/DX2                !
 ! R9    R(4,11)                 1.54           estimate D2E/DX2                !
 ! R10   R(5,6)                  1.3951         estimate D2E/DX2                !
 ! R11   R(5,9)                  1.0998         estimate D2E/DX2                !
 ! R12   R(6,10)                 1.0996         estimate D2E/DX2                !
 ! R13   R(11,12)                1.1171         estimate D2E/DX2                !
 ! R14   R(11,13)                1.1171         estimate D2E/DX2                !
 ! R15   R(11,16)                1.07           estimate D2E/DX2                !
 ! R16   R(14,15)                1.31           estimate D2E/DX2                !
 ! A1    A(2,1,6)              119.9985         estimate D2E/DX2                !
 ! A2    A(2,1,7)              119.9972         estimate D2E/DX2                !
 ! A3    A(6,1,7)              120.0043         estimate D2E/DX2                !
 ! A4    A(1,2,3)              120.0086         estimate D2E/DX2                !
 ! A5    A(1,2,8)              119.9808         estimate D2E/DX2                !
 ! A6    A(3,2,8)              120.0106         estimate D2E/DX2                !
 ! A7    A(2,3,4)              119.9942         estimate D2E/DX2                !
 ! A8    A(2,3,14)             120.0128         estimate D2E/DX2                !
 ! A9    A(4,3,14)             119.993          estimate D2E/DX2                !
 ! A10   A(3,4,5)              119.994          estimate D2E/DX2                !
 ! A11   A(3,4,11)             119.9811         estimate D2E/DX2                !
 ! A12   A(5,4,11)             120.0249         estimate D2E/DX2                !
 ! A13   A(4,5,6)              120.0047         estimate D2E/DX2                !
 ! A14   A(4,5,9)              120.0113         estimate D2E/DX2                !
 ! A15   A(6,5,9)              119.984          estimate D2E/DX2                !
 ! A16   A(1,6,5)              120.0            estimate D2E/DX2                !
 ! A17   A(1,6,10)             120.008          estimate D2E/DX2                !
 ! A18   A(5,6,10)             119.992          estimate D2E/DX2                !
 ! A19   A(4,11,12)            108.191          estimate D2E/DX2                !
 ! A20   A(4,11,13)            108.1922         estimate D2E/DX2                !
 ! A21   A(4,11,16)            110.7128         estimate D2E/DX2                !
 ! A22   A(12,11,13)           108.193          estimate D2E/DX2                !
 ! A23   A(12,11,16)           110.7248         estimate D2E/DX2                !
 ! A24   A(13,11,16)           110.7282         estimate D2E/DX2                !
 ! A25   A(3,14,15)            109.5            estimate D2E/DX2                !
 ! D1    D(6,1,2,3)              0.0323         estimate D2E/DX2                !
 ! D2    D(6,1,2,8)            179.9532         estimate D2E/DX2                !
 ! D3    D(7,1,2,3)           -179.9729         estimate D2E/DX2                !
 ! D4    D(7,1,2,8)             -0.052          estimate D2E/DX2                !
 ! D5    D(2,1,6,5)              0.0149         estimate D2E/DX2                !
 ! D6    D(2,1,6,10)           179.9892         estimate D2E/DX2                !
 ! D7    D(7,1,6,5)           -179.9798         estimate D2E/DX2                !
 ! D8    D(7,1,6,10)            -0.0056         estimate D2E/DX2                !
 ! D9    D(1,2,3,4)             -0.0568         estimate D2E/DX2                !
 ! D10   D(1,2,3,14)           179.9619         estimate D2E/DX2                !
 ! D11   D(8,2,3,4)           -179.9777         estimate D2E/DX2                !
 ! D12   D(8,2,3,14)             0.041          estimate D2E/DX2                !
 ! D13   D(2,3,4,5)              0.0341         estimate D2E/DX2                !
 ! D14   D(2,3,4,11)          -179.9964         estimate D2E/DX2                !
 ! D15   D(14,3,4,5)          -179.9846         estimate D2E/DX2                !
 ! D16   D(14,3,4,11)           -0.0151         estimate D2E/DX2                !
 ! D17   D(2,3,14,15)          -26.6516         estimate D2E/DX2                !
 ! D18   D(4,3,14,15)          153.3671         estimate D2E/DX2                !
 ! D19   D(3,4,5,6)              0.0131         estimate D2E/DX2                !
 ! D20   D(3,4,5,9)           -179.9995         estimate D2E/DX2                !
 ! D21   D(11,4,5,6)          -179.9563         estimate D2E/DX2                !
 ! D22   D(11,4,5,9)             0.0311         estimate D2E/DX2                !
 ! D23   D(3,4,11,12)          -31.4056         estimate D2E/DX2                !
 ! D24   D(3,4,11,13)         -148.4015         estimate D2E/DX2                !
 ! D25   D(3,4,11,16)           90.0939         estimate D2E/DX2                !
 ! D26   D(5,4,11,12)          148.5638         estimate D2E/DX2                !
 ! D27   D(5,4,11,13)           31.5679         estimate D2E/DX2                !
 ! D28   D(5,4,11,16)          -89.9366         estimate D2E/DX2                !
 ! D29   D(4,5,6,1)             -0.0376         estimate D2E/DX2                !
 ! D30   D(4,5,6,10)           179.9881         estimate D2E/DX2                !
 ! D31   D(9,5,6,1)            179.975          estimate D2E/DX2                !
 ! D32   D(9,5,6,10)             0.0007         estimate D2E/DX2                !
 --------------------------------------------------------------------------------
 Trust Radius=3.00D-01 FncErr=1.00D-07 GrdErr=1.00D-07
 Number of steps in this run=     83 maximum allowed number of steps=    100.
 GradGradGradGradGradGradGradGradGradGradGradGradGradGradGradGradGradGrad

                          Input orientation:                          
 ---------------------------------------------------------------------
 Center     Atomic      Atomic             Coordinates (Angstroms)
 Number     Number       Type             X           Y           Z
 ---------------------------------------------------------------------
      1          6           0       -3.724094   -0.498876   -0.000634
      2          6           0       -2.328934   -0.498876   -0.000634
      3          6           0       -1.631396    0.708875   -0.000634
      4          6           0       -2.329050    1.917384   -0.001833
      5          6           0       -3.723875    1.917306   -0.002312
      6          6           0       -4.421476    0.709100   -0.001316
      7          1           0       -4.273853   -1.451193   -0.000184
      8          1           0       -1.779426   -1.451389    0.000681
      9          1           0       -4.273997    2.869587   -0.003265
     10          1           0       -5.521080    0.709283   -0.001496
     11          6           0       -1.558546    3.250772   -0.001916
     12          1           0       -0.600199    3.099818    0.551979
     13          1           0       -2.167166    4.005321    0.553278
     14         16           0        0.148603    0.709005    0.000392
     15          1           0        0.585651   -0.394436    0.554926
     16          1           0       -1.369816    3.578735   -1.002776
 ---------------------------------------------------------------------
                    Distance matrix (angstroms):
                    1          2          3          4          5
     1  C    0.000000
     2  C    1.395160   0.000000
     3  C    2.416205   1.394712   0.000000
     4  C    2.790065   2.416260   1.395427   0.000000
     5  C    2.416183   2.789946   2.416356   1.394825   0.000000
     6  C    1.394829   2.416183   2.790080   2.416236   1.395138
     7  H    1.099610   2.165553   3.412986   3.889675   3.413102
     8  H    2.165414   1.099655   2.165330   3.413316   3.889601
     9  H    3.413055   3.889707   3.413506   2.165528   1.099761
    10  H    2.165365   3.413128   3.889684   3.412999   2.165471
    11  C    4.330065   3.827971   2.542941   1.540000   2.542987
    12  H    4.797364   4.030447   2.661834   2.166514   3.385694
    13  H    4.797774   4.541011   3.385325   2.166526   2.663050
    14  S    4.056694   2.756296   1.780000   2.756620   4.056611
    15  H    4.346661   2.968899   2.537960   3.761646   4.922061
    16  H    4.813919   4.307099   3.051034   2.163817   3.050060
                    6          7          8          9         10
     6  C    0.000000
     7  H    2.165331   0.000000
     8  H    3.412938   2.494427   0.000000
     9  H    2.165516   4.320781   4.989362   0.000000
    10  H    1.099604   2.494641   4.320704   2.494420   0.000000
    11  C    3.828376   5.429675   4.707347   2.742076   4.707530
    12  H    4.541346   5.874719   4.733708   3.722646   5.498733
    13  H    4.031695   5.875202   5.498308   2.457310   4.735017
    14  S    4.570080   4.921847   2.895617   4.922147   5.669684
    15  H    5.157375   5.003965   2.649137   5.880613   6.230567
    16  H    4.307012   5.893962   5.145566   3.152171   5.144833
                   11         12         13         14         15
    11  C    0.000000
    12  H    1.117146   0.000000
    13  H    1.117140   1.809785   0.000000
    14  S    3.061854   2.565335   4.066223   0.000000
    15  H    4.265583   3.689995   5.189978   1.310000   0.000000
    16  H    1.070000   1.799704   1.799735   3.398131   4.694292
                   16
    16  H    0.000000
 Stoichiometry    C7H8S
 Framework group  C1[X(C7H8S)]
 Deg. of freedom    42
 Full point group                 C1      NOp   1
 Largest Abelian subgroup         C1      NOp   1
 Largest concise Abelian subgroup C1      NOp   1
                         Standard orientation:                         
 ---------------------------------------------------------------------
 Center     Atomic      Atomic             Coordinates (Angstroms)
 Number     Number       Type             X           Y           Z
 ---------------------------------------------------------------------
      1          6           0        1.846721   -1.303470    0.004022
      2          6           0        0.462054   -1.473764    0.016939
      3          6           0       -0.377732   -0.360220    0.015657
      4          6           0        0.167100    0.924383    0.002651
      5          6           0        1.551448    1.094563   -0.009784
      6          6           0        2.391343   -0.019432   -0.009495
      7          1           0        2.508641   -2.181538    0.004585
      8          1           0        0.032990   -2.486211    0.026817
      9          1           0        1.981146    2.106852   -0.020028
     10          1           0        3.482657    0.114969   -0.019497
     11          6           0       -0.760446    2.153716    0.001321
     12          1           0       -1.697807    1.882769   -0.542698
     13          1           0       -0.253218    2.972731   -0.564308
     14         16           0       -2.144369   -0.577367    0.031110
     15          1           0       -2.448037   -1.730027   -0.512270
     16          1           0       -0.979394    2.463678    1.001764
 ---------------------------------------------------------------------
 Rotational constants (GHZ):      2.8411026      1.5248316      0.9998356
 Standard basis: 6-311++G (5D, 7F)
 There are   176 symmetry adapted basis functions of A   symmetry.
 Integral buffers will be    262144 words long.
 Raffenetti 1 integral format.
 Two-electron integral symmetry is turned on.
   176 basis functions,   302 primitive gaussians,   176 cartesian basis functions
    33 alpha electrons       33 beta electrons
       nuclear repulsion energy       404.7048909931 Hartrees.
 NAtoms=   16 NActive=   16 NUniq=   16 SFac= 1.00D+00 NAtFMM=   60 NAOKFM=F Big=F
 One-electron integrals computed using PRISM.
 NBasis=   176 RedAO= T  NBF=   176
 NBsUse=   175 1.00D-06 NBFU=   175
 Harris functional with IExCor=  205 diagonalized for initial guess.
 ExpMin= 3.60D-02 ExpMax= 9.34D+04 ExpMxC= 3.17D+03 IAcc=3 IRadAn=         5 AccDes= 0.00D+00
 HarFok:  IExCor=  205 AccDes= 0.00D+00 IRadAn=         5 IDoV= 1
 ScaDFX=  1.000000  1.000000  1.000000  1.000000
 FoFCou: FMM=F IPFlag=           0 FMFlag=      100000 FMFlg1=           0
         NFxFlg=           0 DoJE=T BraDBF=F KetDBF=T FulRan=T
         Omega=  0.000000  0.000000  1.000000  0.000000  0.000000 ICntrl=     500 IOpCl=  0
         NMat0=    1 NMatS0=    1 NMatT0=    0 NMatD0=    1 NMtDS0=    0 NMtDT0=    0
         I1Cent=           4 NGrid=           0.
 Petite list used in FoFCou.
 Initial guess orbital symmetries:
       Occupied  (A) (A) (A) (A) (A) (A) (A) (A) (A) (A) (A) (A)
                 (A) (A) (A) (A) (A) (A) (A) (A) (A) (A) (A) (A)
                 (A) (A) (A) (A) (A) (A) (A) (A) (A)
       Virtual   (A) (A) (A) (A) (A) (A) (A) (A) (A) (A) (A) (A)
                 (A) (A) (A) (A) (A) (A) (A) (A) (A) (A) (A) (A)
                 (A) (A) (A) (A) (A) (A) (A) (A) (A) (A) (A) (A)
                 (A) (A) (A) (A) (A) (A) (A) (A) (A) (A) (A) (A)
                 (A) (A) (A) (A) (A) (A) (A) (A) (A) (A) (A) (A)
                 (A) (A) (A) (A) (A) (A) (A) (A) (A) (A) (A) (A)
                 (A) (A) (A) (A) (A) (A) (A) (A) (A) (A) (A) (A)
                 (A) (A) (A) (A) (A) (A) (A) (A) (A) (A) (A) (A)
                 (A) (A) (A) (A) (A) (A) (A) (A) (A) (A) (A) (A)
                 (A) (A) (A) (A) (A) (A) (A) (A) (A) (A) (A) (A)
                 (A) (A) (A) (A) (A) (A) (A) (A) (A) (A) (A) (A)
                 (A) (A) (A) (A) (A) (A) (A) (A) (A) (A)
 The electronic state of the initial guess is 1-A.
 Requested convergence on RMS density matrix=1.00D-08 within 128 cycles.
 Requested convergence on MAX density matrix=1.00D-06.
 Requested convergence on             energy=1.00D-06.
 No special actions if energy rises.
 Initial convergence to 1.0D-05 achieved.  Increase integral accuracy.
 SCF Done:  E(RHF) =  -667.170841982     A.U. after   17 cycles
             Convg  =    0.3677D-08             -V/T =  2.0001
 ExpMin= 3.60D-02 ExpMax= 9.34D+04 ExpMxC= 3.17D+03 IAcc=3 IRadAn=         5 AccDes= 0.00D+00
 HarFok:  IExCor=  205 AccDes= 0.00D+00 IRadAn=         5 IDoV=-2
 ScaDFX=  1.000000  1.000000  1.000000  1.000000
 Range of M.O.s used for correlation:    13   175
 NBasis=   176 NAE=    33 NBE=    33 NFC=    12 NFV=     0
 NROrb=    163 NOA=    21 NOB=    21 NVA=   142 NVB=   142

 **** Warning!!: The largest alpha MO coefficient is  0.15237492D+03

 Disk-based method using ON**2 memory for 21 occupieds at a time.
 Estimated scratch disk usage=   229498204 words.
 Actual    scratch disk usage=   198404444 words.
 JobTyp=1 Pass  1:  I=  13 to  33 NPSUse=  1 ParTrn=F ParDer=F DoDerP=T.
 Spin components of T(2) and E(2):
     alpha-alpha T2 =       0.4061936744D-01 E2=     -0.9165947906D-01
     alpha-beta  T2 =       0.2286588199D+00 E2=     -0.5455074467D+00
     beta-beta   T2 =       0.4061936744D-01 E2=     -0.9165947906D-01
 ANorm=    0.1144507560D+01
 E2 =    -0.7288264048D+00 EUMP2 =    -0.66789966838677D+03
          IDoAtm=1111111111111111
          Differentiating once with respect to electric field.
                with respect to dipole field.
          Differentiating once with respect to nuclear coordinates.
          There are     1 degrees of freedom in the 1st order CPHF.  IDoFFX=0.
 LinEq1:  Iter=  0 NonCon=     1 RMS=3.16D-03 Max=4.43D-02
 AX will form     1 AO Fock derivatives at one time.
 LinEq1:  Iter=  1 NonCon=     1 RMS=7.39D-04 Max=6.84D-03
 LinEq1:  Iter=  2 NonCon=     1 RMS=2.53D-04 Max=4.73D-03
 LinEq1:  Iter=  3 NonCon=     1 RMS=8.22D-05 Max=1.84D-03
 LinEq1:  Iter=  4 NonCon=     1 RMS=4.19D-05 Max=1.16D-03
 LinEq1:  Iter=  5 NonCon=     1 RMS=1.25D-05 Max=1.40D-04
 LinEq1:  Iter=  6 NonCon=     1 RMS=3.46D-06 Max=3.61D-05
 LinEq1:  Iter=  7 NonCon=     1 RMS=9.75D-07 Max=9.66D-06
 LinEq1:  Iter=  8 NonCon=     1 RMS=2.11D-07 Max=1.89D-06
 LinEq1:  Iter=  9 NonCon=     1 RMS=9.08D-08 Max=8.81D-07
 LinEq1:  Iter= 10 NonCon=     1 RMS=2.40D-08 Max=2.77D-07
 LinEq1:  Iter= 11 NonCon=     1 RMS=9.44D-09 Max=1.13D-07
 LinEq1:  Iter= 12 NonCon=     1 RMS=2.59D-09 Max=2.70D-08
 LinEq1:  Iter= 13 NonCon=     1 RMS=7.65D-10 Max=6.35D-09
 LinEq1:  Iter= 14 NonCon=     1 RMS=2.23D-10 Max=2.67D-09
 LinEq1:  Iter= 15 NonCon=     0 RMS=4.53D-11 Max=4.03D-10
 Linear equations converged to 1.000D-10 1.000D-09 after    15 iterations.
 End of Minotr Frequency-dependent properties file   721 does not exist.
 End of Minotr Frequency-dependent properties file   722 does not exist.

 **********************************************************************

            Population analysis using the SCF density.

 **********************************************************************

 Orbital symmetries:
       Occupied  (A) (A) (A) (A) (A) (A) (A) (A) (A) (A) (A) (A)
                 (A) (A) (A) (A) (A) (A) (A) (A) (A) (A) (A) (A)
                 (A) (A) (A) (A) (A) (A) (A) (A) (A)
       Virtual   (A) (A) (A) (A) (A) (A) (A) (A) (A) (A) (A) (A)
                 (A) (A) (A) (A) (A) (A) (A) (A) (A) (A) (A) (A)
                 (A) (A) (A) (A) (A) (A) (A) (A) (A) (A) (A) (A)
                 (A) (A) (A) (A) (A) (A) (A) (A) (A) (A) (A) (A)
                 (A) (A) (A) (A) (A) (A) (A) (A) (A) (A) (A) (A)
                 (A) (A) (A) (A) (A) (A) (A) (A) (A) (A) (A) (A)
                 (A) (A) (A) (A) (A) (A) (A) (A) (A) (A) (A) (A)
                 (A) (A) (A) (A) (A) (A) (A) (A) (A) (A) (A) (A)
                 (A) (A) (A) (A) (A) (A) (A) (A) (A) (A) (A) (A)
                 (A) (A) (A) (A) (A) (A) (A) (A) (A) (A) (A) (A)
                 (A) (A) (A) (A) (A) (A) (A) (A) (A) (A) (A) (A)
                 (A) (A) (A) (A) (A) (A) (A) (A) (A) (A)
 The electronic state is 1-A.
 Alpha  occ. eigenvalues --  -91.96690 -11.29188 -11.26697 -11.25968 -11.25459
 Alpha  occ. eigenvalues --  -11.25358 -11.25266 -11.23353  -8.97397  -6.65703
 Alpha  occ. eigenvalues --   -6.65409  -6.65197  -1.18202  -1.07094  -1.05154
 Alpha  occ. eigenvalues --   -0.96974  -0.93356  -0.83498  -0.79997  -0.69524
 Alpha  occ. eigenvalues --   -0.65908  -0.63277  -0.59506  -0.58987  -0.57366
 Alpha  occ. eigenvalues --   -0.53874  -0.52111  -0.50965  -0.49457  -0.44297
 Alpha  occ. eigenvalues --   -0.41009  -0.34193  -0.31642
 Alpha virt. eigenvalues --    0.03759   0.04551   0.05047   0.06430   0.06921
 Alpha virt. eigenvalues --    0.07289   0.08931   0.09678   0.10616   0.11112
 Alpha virt. eigenvalues --    0.11747   0.12256   0.13400   0.14617   0.15265
 Alpha virt. eigenvalues --    0.15430   0.16432   0.16703   0.17485   0.17730
 Alpha virt. eigenvalues --    0.18127   0.18884   0.19286   0.19741   0.20047
 Alpha virt. eigenvalues --    0.20726   0.21861   0.22251   0.22571   0.23433
 Alpha virt. eigenvalues --    0.24022   0.24029   0.25200   0.25864   0.26205
 Alpha virt. eigenvalues --    0.26647   0.28470   0.28688   0.30841   0.31326
 Alpha virt. eigenvalues --    0.31791   0.33291   0.33550   0.34625   0.35112
 Alpha virt. eigenvalues --    0.37158   0.38731   0.40117   0.41498   0.42501
 Alpha virt. eigenvalues --    0.42990   0.44270   0.46751   0.47190   0.48443
 Alpha virt. eigenvalues --    0.50663   0.52064   0.53219   0.55197   0.59925
 Alpha virt. eigenvalues --    0.63978   0.66332   0.66676   0.70359   0.71600
 Alpha virt. eigenvalues --    0.71951   0.74042   0.74297   0.75540   0.78096
 Alpha virt. eigenvalues --    0.79110   0.79365   0.83156   0.84398   0.84527
 Alpha virt. eigenvalues --    0.87747   0.88281   0.88566   0.91023   0.91528
 Alpha virt. eigenvalues --    0.93964   0.95990   0.97879   0.98453   1.03250
 Alpha virt. eigenvalues --    1.05206   1.05927   1.07266   1.08942   1.13196
 Alpha virt. eigenvalues --    1.15333   1.15957   1.18217   1.22627   1.25683
 Alpha virt. eigenvalues --    1.26516   1.30616   1.55547   1.99345   2.10629
 Alpha virt. eigenvalues --    2.12268   2.72367   2.75466   2.77958   2.80524
 Alpha virt. eigenvalues --    2.82358   2.86543   2.88637   2.94086   3.03042
 Alpha virt. eigenvalues --    3.05421   3.05866   3.10879   3.13784   3.18445
 Alpha virt. eigenvalues --    3.19155   3.27740   3.30775   3.34068   3.38622
 Alpha virt. eigenvalues --    3.40843   3.47919   3.48832   3.53775   3.54801
 Alpha virt. eigenvalues --    3.62903   3.65230   3.68132   3.70530   3.83298
 Alpha virt. eigenvalues --    8.51616  18.39734  18.50862  18.56199  24.33924
 Alpha virt. eigenvalues --   24.56849  24.58919  24.68366  24.78525  24.79046
 Alpha virt. eigenvalues --   25.04420 192.39326
          Condensed to atoms (all electrons):
              1          2          3          4          5          6
     1  C    8.477964   1.726966  -2.556609  -0.145719  -0.983386  -1.008823
     2  C    1.726966  13.559754   1.717957  -7.883982  -1.376522  -1.354646
     3  C   -2.556609   1.717957  25.906981  -9.542422  -9.240921  -0.666709
     4  C   -0.145719  -7.883982  -9.542422  24.201000   2.884891  -1.361546
     5  C   -0.983386  -1.376522  -9.240921   2.884891  14.418914   2.472540
     6  C   -1.008823  -1.354646  -0.666709  -1.361546   2.472540   8.824876
     7  H    0.428181  -0.018524  -0.053375   0.144575  -0.070411  -0.192981
     8  H   -0.021576   0.280467  -0.182536  -0.032680   0.123493   0.068780
     9  H    0.045941   0.092254   0.064198   0.050994   0.110303  -0.182533
    10  H   -0.107167  -0.051499   0.084552  -0.057744  -0.018519   0.436362
    11  C    0.736054   0.442010   2.581243  -4.149118  -2.498177  -1.082049
    12  H    0.008986  -0.033696   0.133247  -0.132288  -0.068238  -0.030560
    13  H   -0.002222   0.014292   0.017503  -0.230434   0.067913   0.021316
    14  S   -0.517347  -1.117813  -2.827791   1.766021   0.819325   0.792868
    15  H   -0.071561  -0.441091  -0.042980   0.439833   0.076333  -0.024185
    16  H    0.017758   0.059004   0.115363  -0.043357  -0.093378  -0.026907
              7          8          9         10         11         12
     1  C    0.428181  -0.021576   0.045941  -0.107167   0.736054   0.008986
     2  C   -0.018524   0.280467   0.092254  -0.051499   0.442010  -0.033696
     3  C   -0.053375  -0.182536   0.064198   0.084552   2.581243   0.133247
     4  C    0.144575  -0.032680   0.050994  -0.057744  -4.149118  -0.132288
     5  C   -0.070411   0.123493   0.110303  -0.018519  -2.498177  -0.068238
     6  C   -0.192981   0.068780  -0.182533   0.436362  -1.082049  -0.030560
     7  H    0.414283  -0.004916   0.000831  -0.002076   0.028349   0.001455
     8  H   -0.004916   0.407517   0.000197  -0.000326  -0.047907  -0.004076
     9  H    0.000831   0.000197   0.398075  -0.004818   0.070611   0.005149
    10  H   -0.002076  -0.000326  -0.004818   0.394778  -0.041119  -0.000986
    11  C    0.028349  -0.047907   0.070611  -0.041119  10.789629   0.487268
    12  H    0.001455  -0.004076   0.005149  -0.000986   0.487268   0.484700
    13  H   -0.000366   0.000527  -0.007329   0.001613   0.444226  -0.043394
    14  S   -0.040696   0.066746  -0.036933   0.018460  -0.860967  -0.041547
    15  H    0.002400   0.007156   0.001242  -0.000546   0.005611   0.005067
    16  H    0.000290  -0.000446  -0.000725  -0.000376   0.325193  -0.022631
             13         14         15         16
     1  C   -0.002222  -0.517347  -0.071561   0.017758
     2  C    0.014292  -1.117813  -0.441091   0.059004
     3  C    0.017503  -2.827791  -0.042980   0.115363
     4  C   -0.230434   1.766021   0.439833  -0.043357
     5  C    0.067913   0.819325   0.076333  -0.093378
     6  C    0.021316   0.792868  -0.024185  -0.026907
     7  H   -0.000366  -0.040696   0.002400   0.000290
     8  H    0.000527   0.066746   0.007156  -0.000446
     9  H   -0.007329  -0.036933   0.001242  -0.000725
    10  H    0.001613   0.018460  -0.000546  -0.000376
    11  C    0.444226  -0.860967   0.005611   0.325193
    12  H   -0.043394  -0.041547   0.005067  -0.022631
    13  H    0.496938   0.001230  -0.002617  -0.014544
    14  S    0.001230  18.513001   0.245414  -0.016306
    15  H   -0.002617   0.245414   0.636606  -0.002813
    16  H   -0.014544  -0.016306  -0.002813   0.438843
 Mulliken atomic charges:
              1
     1  C   -0.027440
     2  C    0.385072
     3  C    0.492300
     4  C    0.091978
     5  C   -0.624159
     6  C   -0.685801
     7  H    0.362982
     8  H    0.339580
     9  H    0.392545
    10  H    0.349411
    11  C   -1.230857
    12  H    0.251544
    13  H    0.235350
    14  S   -0.763665
    15  H    0.166131
    16  H    0.265031
 Sum of Mulliken atomic charges =   0.00000
 Mulliken charges with hydrogens summed into heavy atoms:
              1
     1  C    0.335542
     2  C    0.724651
     3  C    0.492300
     4  C    0.091978
     5  C   -0.231614
     6  C   -0.336391
    11  C   -0.478932
    14  S   -0.597535
 Sum of Mulliken charges with hydrogens summed into heavy atoms =   0.00000
 Electronic spatial extent (au):  <R**2>=           1156.0738
 Charge=              0.0000 electrons
 Dipole moment (field-independent basis, Debye):
    X=              1.2682    Y=             -0.5724    Z=             -0.5943  Tot=              1.5130
 Quadrupole moment (field-independent basis, Debye-Ang):
   XX=            -55.8480   YY=            -49.1299   ZZ=            -61.6918
   XY=              2.4028   XZ=              1.7016   YZ=              1.5140
 Traceless Quadrupole moment (field-independent basis, Debye-Ang):
   XX=             -0.2914   YY=              6.4267   ZZ=             -6.1352
   XY=              2.4028   XZ=              1.7016   YZ=              1.5140
 Octapole moment (field-independent basis, Debye-Ang**2):
  XXX=             15.6293  YYY=             -6.5081  ZZZ=              0.1562  XYY=             -2.7341
  XXY=             -7.6189  XXZ=             -5.1221  XZZ=             -4.9962  YZZ=              2.7827
  YYZ=             -1.8307  XYZ=             -4.1632
 Hexadecapole moment (field-independent basis, Debye-Ang**3):
 XXXX=           -928.0994 YYYY=           -555.1448 ZZZZ=            -85.5313 XXXY=             21.4791
 XXXZ=             13.2322 YYYX=             13.8037 YYYZ=              2.8840 ZZZX=              1.1234
 ZZZY=              3.4890 XXYY=           -231.2407 XXZZ=           -195.9303 YYZZ=           -117.2645
 XXYZ=              8.8430 YYXZ=              3.3537 ZZXY=              0.0706
 N-N= 4.047048909931D+02 E-N=-2.383083905842D+03  KE= 6.670939065617D+02
 ******************************Gaussian NBO Version 3.1******************************
             N A T U R A L   A T O M I C   O R B I T A L   A N D
          N A T U R A L   B O N D   O R B I T A L   A N A L Y S I S
 ******************************Gaussian NBO Version 3.1******************************
       /RESON  / : Allow strongly delocalized NBO set

 Analyzing the SCF density

 Job title: Title Card Required                                             

 Storage needed:     93888 in NPA,    124713 in NBO (  33553612 available)


 NATURAL POPULATIONS:  Natural atomic orbital occupancies 
                                                          
   NAO  Atom  No  lang   Type(AO)    Occupancy      Energy
 ----------------------------------------------------------
     1    C    1  S      Cor( 1S)     1.99923     -11.09567
     2    C    1  S      Val( 2S)     0.94568      -0.17125
     3    C    1  S      Ryd( 3S)     0.00166       0.97636
     4    C    1  S      Ryd( 4S)     0.00013       1.08355
     5    C    1  S      Ryd( 5S)     0.00001      23.76439
     6    C    1  px     Val( 2p)     1.09623      -0.04544
     7    C    1  px     Ryd( 4p)     0.00663       1.07359
     8    C    1  px     Ryd( 3p)     0.00035       0.47803
     9    C    1  px     Ryd( 5p)     0.00010       3.09248
    10    C    1  py     Val( 2p)     1.13700      -0.05683
    11    C    1  py     Ryd( 4p)     0.00708       1.13827
    12    C    1  py     Ryd( 3p)     0.00032       0.56369
    13    C    1  py     Ryd( 5p)     0.00007       3.09686
    14    C    1  pz     Val( 2p)     1.00719      -0.07342
    15    C    1  pz     Ryd( 4p)     0.00224       0.70474
    16    C    1  pz     Ryd( 3p)     0.00017       0.37129
    17    C    1  pz     Ryd( 5p)     0.00001       3.00283

    18    C    2  S      Cor( 1S)     1.99911     -11.09609
    19    C    2  S      Val( 2S)     0.93483      -0.16315
    20    C    2  S      Ryd( 4S)     0.00213       0.96694
    21    C    2  S      Ryd( 3S)     0.00018       0.69010
    22    C    2  S      Ryd( 5S)     0.00001      24.16957
    23    C    2  px     Val( 2p)     1.08826      -0.05851
    24    C    2  px     Ryd( 4p)     0.00751       0.98950
    25    C    2  px     Ryd( 3p)     0.00037       0.43567
    26    C    2  px     Ryd( 5p)     0.00015       3.16031
    27    C    2  py     Val( 2p)     1.15549      -0.06784
    28    C    2  py     Ryd( 4p)     0.00653       1.20829
    29    C    2  py     Ryd( 3p)     0.00025       0.47149
    30    C    2  py     Ryd( 5p)     0.00006       3.21662
    31    C    2  pz     Val( 2p)     0.99821      -0.07655
    32    C    2  pz     Ryd( 4p)     0.00210       0.69679
    33    C    2  pz     Ryd( 3p)     0.00034       0.33579
    34    C    2  pz     Ryd( 5p)     0.00002       3.05245

    35    C    3  S      Cor( 1S)     1.99875     -11.13885
    36    C    3  S      Val( 2S)     0.92987      -0.20969
    37    C    3  S      Ryd( 4S)     0.00140       1.13879
    38    C    3  S      Ryd( 3S)     0.00042       0.50924
    39    C    3  S      Ryd( 5S)     0.00001      24.32555
    40    C    3  px     Val( 2p)     1.04230      -0.14766
    41    C    3  px     Ryd( 4p)     0.00700       1.29691
    42    C    3  px     Ryd( 3p)     0.00040       1.03209
    43    C    3  px     Ryd( 5p)     0.00014       3.07207
    44    C    3  py     Val( 2p)     1.11246      -0.08918
    45    C    3  py     Ryd( 4p)     0.00443       0.95687
    46    C    3  py     Ryd( 3p)     0.00012       0.53689
    47    C    3  py     Ryd( 5p)     0.00015       3.22544
    48    C    3  pz     Val( 2p)     1.07427      -0.11612
    49    C    3  pz     Ryd( 4p)     0.00097       0.80288
    50    C    3  pz     Ryd( 3p)     0.00039       0.40629
    51    C    3  pz     Ryd( 5p)     0.00002       2.98139

    52    C    4  S      Cor( 1S)     1.99900     -11.10389
    53    C    4  S      Val( 2S)     0.88086      -0.12864
    54    C    4  S      Ryd( 4S)     0.00091       1.10952
    55    C    4  S      Ryd( 3S)     0.00024       0.50859
    56    C    4  S      Ryd( 5S)     0.00001      24.33048
    57    C    4  px     Val( 2p)     1.08847      -0.05821
    58    C    4  px     Ryd( 4p)     0.00551       1.20470
    59    C    4  px     Ryd( 3p)     0.00017       0.50498
    60    C    4  px     Ryd( 5p)     0.00011       3.36347
    61    C    4  py     Val( 2p)     1.07500      -0.06057
    62    C    4  py     Ryd( 4p)     0.00552       1.24994
    63    C    4  py     Ryd( 3p)     0.00025       0.52449
    64    C    4  py     Ryd( 5p)     0.00012       3.35437
    65    C    4  pz     Val( 2p)     0.97376      -0.05905
    66    C    4  pz     Ryd( 4p)     0.00238       0.76865
    67    C    4  pz     Ryd( 3p)     0.00028       0.40724
    68    C    4  pz     Ryd( 5p)     0.00002       3.06066

    69    C    5  S      Cor( 1S)     1.99912     -11.09070
    70    C    5  S      Val( 2S)     0.93597      -0.15636
    71    C    5  S      Ryd( 4S)     0.00147       1.06790
    72    C    5  S      Ryd( 3S)     0.00013       0.83869
    73    C    5  S      Ryd( 5S)     0.00001      23.93186
    74    C    5  px     Val( 2p)     1.07548      -0.04096
    75    C    5  px     Ryd( 4p)     0.00573       1.00597
    76    C    5  px     Ryd( 3p)     0.00032       0.46401
    77    C    5  px     Ryd( 5p)     0.00013       3.11841
    78    C    5  py     Val( 2p)     1.16212      -0.06345
    79    C    5  py     Ryd( 4p)     0.00700       1.29464
    80    C    5  py     Ryd( 3p)     0.00029       0.56776
    81    C    5  py     Ryd( 5p)     0.00005       3.12364
    82    C    5  pz     Val( 2p)     1.00514      -0.07322
    83    C    5  pz     Ryd( 4p)     0.00177       0.71500
    84    C    5  pz     Ryd( 3p)     0.00024       0.35848
    85    C    5  pz     Ryd( 5p)     0.00001       3.02356

    86    C    6  S      Cor( 1S)     1.99924     -11.09519
    87    C    6  S      Val( 2S)     0.94647      -0.17114
    88    C    6  S      Ryd( 3S)     0.00161       0.99805
    89    C    6  S      Ryd( 4S)     0.00012       1.39792
    90    C    6  S      Ryd( 5S)     0.00000      23.41708
    91    C    6  px     Val( 2p)     1.17299      -0.05910
    92    C    6  px     Ryd( 4p)     0.00729       1.25666
    93    C    6  px     Ryd( 3p)     0.00029       0.61023
    94    C    6  px     Ryd( 5p)     0.00004       3.11230
    95    C    6  py     Val( 2p)     1.06205      -0.04071
    96    C    6  py     Ryd( 4p)     0.00667       0.93997
    97    C    6  py     Ryd( 3p)     0.00034       0.43735
    98    C    6  py     Ryd( 5p)     0.00013       3.09964
    99    C    6  pz     Val( 2p)     0.99329      -0.06966
   100    C    6  pz     Ryd( 4p)     0.00231       0.69867
   101    C    6  pz     Ryd( 3p)     0.00015       0.37337
   102    C    6  pz     Ryd( 5p)     0.00001       3.00719

   103    H    7  S      Val( 1S)     0.79278       0.10339
   104    H    7  S      Ryd( 3S)     0.00068       0.79085
   105    H    7  S      Ryd( 4S)     0.00018       2.33751
   106    H    7  S      Ryd( 2S)     0.00003       0.27443

   107    H    8  S      Val( 1S)     0.79533       0.09191
   108    H    8  S      Ryd( 3S)     0.00071       0.78466
   109    H    8  S      Ryd( 4S)     0.00018       2.23930
   110    H    8  S      Ryd( 2S)     0.00011       0.42222

   111    H    9  S      Val( 1S)     0.79258       0.10073
   112    H    9  S      Ryd( 3S)     0.00066       0.98946
   113    H    9  S      Ryd( 4S)     0.00019       2.18648
   114    H    9  S      Ryd( 2S)     0.00007       0.25401

   115    H   10  S      Val( 1S)     0.79459       0.10342
   116    H   10  S      Ryd( 3S)     0.00070       0.80905
   117    H   10  S      Ryd( 4S)     0.00017       2.33343
   118    H   10  S      Ryd( 2S)     0.00004       0.26570

   119    C   11  S      Cor( 1S)     1.99942     -11.08160
   120    C   11  S      Val( 2S)     1.08348      -0.28294
   121    C   11  S      Ryd( 4S)     0.00065       0.87256
   122    C   11  S      Ryd( 3S)     0.00008       0.82981
   123    C   11  S      Ryd( 5S)     0.00000      24.33681
   124    C   11  px     Val( 2p)     1.15619      -0.08633
   125    C   11  px     Ryd( 4p)     0.00265       0.70111
   126    C   11  px     Ryd( 3p)     0.00009       0.49970
   127    C   11  px     Ryd( 5p)     0.00004       3.03480
   128    C   11  py     Val( 2p)     1.10185      -0.07133
   129    C   11  py     Ryd( 4p)     0.00208       0.70807
   130    C   11  py     Ryd( 3p)     0.00014       0.46950
   131    C   11  py     Ryd( 5p)     0.00006       3.02656
   132    C   11  pz     Val( 2p)     1.20448      -0.08882
   133    C   11  pz     Ryd( 4p)     0.00064       0.71494
   134    C   11  pz     Ryd( 3p)     0.00015       0.51831
   135    C   11  pz     Ryd( 5p)     0.00005       3.04016

   136    H   12  S      Val( 1S)     0.78355       0.09463
   137    H   12  S      Ryd( 2S)     0.00075       1.01173
   138    H   12  S      Ryd( 3S)     0.00021       1.12786
   139    H   12  S      Ryd( 4S)     0.00010       1.39401

   140    H   13  S      Val( 1S)     0.80723       0.07451
   141    H   13  S      Ryd( 2S)     0.00074       0.78801
   142    H   13  S      Ryd( 3S)     0.00011       0.94827
   143    H   13  S      Ryd( 4S)     0.00007       1.76195

   144    S   14  S      Cor( 1S)     2.00000     -90.74063
   145    S   14  S      Cor( 2S)     1.99943      -9.94850
   146    S   14  S      Val( 3S)     1.65360      -0.87712
   147    S   14  S      Ryd( 5S)     0.00288       1.04317
   148    S   14  S      Ryd( 4S)     0.00015       0.38915
   149    S   14  S      Ryd( 6S)     0.00001      14.73118
   150    S   14  S      Ryd( 7S)     0.00000     185.57857
   151    S   14  px     Cor( 2p)     1.99991      -6.64584
   152    S   14  px     Val( 3p)     1.13045      -0.18362
   153    S   14  px     Ryd( 5p)     0.00477       0.49129
   154    S   14  px     Ryd( 4p)     0.00010       0.48361
   155    S   14  px     Ryd( 6p)     0.00005       2.18061
   156    S   14  px     Ryd( 7p)     0.00000      18.04138
   157    S   14  py     Cor( 2p)     1.99994      -6.64642
   158    S   14  py     Val( 3p)     1.40115      -0.24594
   159    S   14  py     Ryd( 5p)     0.00294       0.66433
   160    S   14  py     Ryd( 4p)     0.00009       0.40911
   161    S   14  py     Ryd( 6p)     0.00006       2.15668
   162    S   14  py     Ryd( 7p)     0.00000      18.10414
   163    S   14  pz     Cor( 2p)     1.99998      -6.64543
   164    S   14  pz     Val( 3p)     1.81193      -0.34250
   165    S   14  pz     Ryd( 5p)     0.00465       0.51476
   166    S   14  pz     Ryd( 4p)     0.00007       0.39190
   167    S   14  pz     Ryd( 6p)     0.00004       1.98410
   168    S   14  pz     Ryd( 7p)     0.00000      18.09516

   169    H   15  S      Val( 1S)     0.86980      -0.11994
   170    H   15  S      Ryd( 2S)     0.00080       0.52065
   171    H   15  S      Ryd( 4S)     0.00022       2.04859
   172    H   15  S      Ryd( 3S)     0.00018       0.69337

   173    H   16  S      Val( 1S)     0.79865       0.10894
   174    H   16  S      Ryd( 2S)     0.00083       0.75157
   175    H   16  S      Ryd( 3S)     0.00012       0.86798
   176    H   16  S      Ryd( 4S)     0.00008       1.89344

 WARNING:  1 low occupancy (<1.9990e) core orbital  found on  C    3

 WARNING:  Population inversion found on atom  C    1
           Population inversion found on atom  C    2
           Population inversion found on atom  C    3
           Population inversion found on atom  C    4
           Population inversion found on atom  C    5
           Population inversion found on atom  C    6
           Population inversion found on atom  H    7
           Population inversion found on atom  H    8
           Population inversion found on atom  H    9
           Population inversion found on atom  H   10
           Population inversion found on atom  C   11
           Population inversion found on atom  S   14
           Population inversion found on atom  H   15


 Summary of Natural Population Analysis:                  
                                                          
                                       Natural Population 
                Natural  -----------------------------------------------
    Atom  No    Charge         Core      Valence    Rydberg      Total
 -----------------------------------------------------------------------
      C    1   -0.20411      1.99923     4.18611    0.01877     6.20411
      C    2   -0.19553      1.99911     4.17678    0.01964     6.19553
      C    3   -0.17309      1.99875     4.15889    0.01545     6.17309
      C    4   -0.03260      1.99900     4.01809    0.01551     6.03260
      C    5   -0.19497      1.99912     4.17871    0.01714     6.19497
      C    6   -0.19300      1.99924     4.17481    0.01896     6.19300
      H    7    0.20633      0.00000     0.79278    0.00089     0.79367
      H    8    0.20367      0.00000     0.79533    0.00100     0.79633
      H    9    0.20650      0.00000     0.79258    0.00092     0.79350
      H   10    0.20450      0.00000     0.79459    0.00091     0.79550
      C   11   -0.55207      1.99942     4.54601    0.00664     6.55207
      H   12    0.21539      0.00000     0.78355    0.00106     0.78461
      H   13    0.19185      0.00000     0.80723    0.00092     0.80815
      S   14   -0.01219      9.99926     5.99713    0.01580    16.01219
      H   15    0.12900      0.00000     0.86980    0.00120     0.87100
      H   16    0.20033      0.00000     0.79865    0.00103     0.79967
 =======================================================================
   * Total *    0.00000     23.99312    41.87105    0.13583    66.00000

                                 Natural Population      
 --------------------------------------------------------
   Core                      23.99312 ( 99.9713% of  24)
   Valence                   41.87105 ( 99.6930% of  42)
   Natural Minimal Basis     65.86417 ( 99.7942% of  66)
   Natural Rydberg Basis      0.13583 (  0.2058% of  66)
 --------------------------------------------------------

    Atom  No          Natural Electron Configuration
 ----------------------------------------------------------------------------
      C    1      [core]2S( 0.95)2p( 3.24)4p( 0.02)
      C    2      [core]2S( 0.93)2p( 3.24)4p( 0.02)
      C    3      [core]2S( 0.93)2p( 3.23)4p( 0.01)
      C    4      [core]2S( 0.88)2p( 3.14)4p( 0.01)
      C    5      [core]2S( 0.94)2p( 3.24)4p( 0.01)
      C    6      [core]2S( 0.95)2p( 3.23)4p( 0.02)
      H    7            1S( 0.79)
      H    8            1S( 0.80)
      H    9            1S( 0.79)
      H   10            1S( 0.79)
      C   11      [core]2S( 1.08)2p( 3.46)4p( 0.01)
      H   12            1S( 0.78)
      H   13            1S( 0.81)
      S   14      [core]3S( 1.65)3p( 4.34)5p( 0.01)
      H   15            1S( 0.87)
      H   16            1S( 0.80)


 NATURAL BOND ORBITAL ANALYSIS:

                       Occupancies       Lewis Structure    Low   High
           Occ.    -------------------  -----------------   occ   occ
  Cycle   Thresh.   Lewis   Non-Lewis     CR  BD  3C  LP    (L)   (NL)   Dev
 =============================================================================
   1(1)    1.90    62.71450   3.28550     12  16   0   5     3      3    0.44
   2(2)    1.90    62.71450   3.28550     12  16   0   5     3      3    0.44
   3(1)    1.80    62.71450   3.28550     12  16   0   5     3      3    0.44
   4(2)    1.80    62.71450   3.28550     12  16   0   5     3      3    0.44
   5(1)    1.70    62.71450   3.28550     12  16   0   5     3      3    0.44
   6(2)    1.70    62.71450   3.28550     12  16   0   5     3      3    0.44
   7(1)    1.60    64.63639   1.36361     12  19   0   2     0      3    0.43
   8(2)    1.60    64.61239   1.38761     12  19   0   2     0      3    0.44
   9(3)    1.60    64.63639   1.36361     12  19   0   2     0      3    0.43
  10(1)    1.50    64.63639   1.36361     12  19   0   2     0      3    0.43
  11(2)    1.50    64.61239   1.38761     12  19   0   2     0      3    0.44
  12(3)    1.50    64.63639   1.36361     12  19   0   2     0      3    0.43
  13(1)    1.60    64.63639   1.36361     12  19   0   2     0      3    0.43
 -----------------------------------------------------------------------------

 Structure accepted: RESONANCE keyword permits strongly delocalized structure

 WARNING:  1 low occupancy (<1.9990e) core orbital  found on  C    3

 --------------------------------------------------------
   Core                     23.99313 ( 99.971% of  24)
   Valence Lewis            40.64325 ( 96.770% of  42)
  ==================       ============================
   Total Lewis              64.63639 ( 97.934% of  66)
  -----------------------------------------------------
   Valence non-Lewis         1.27775 (  1.936% of  66)
   Rydberg non-Lewis         0.08586 (  0.130% of  66)
  ==================       ============================
   Total non-Lewis           1.36361 (  2.066% of  66)
 --------------------------------------------------------


       (Occupancy)   Bond orbital/ Coefficients/ Hybrids
 ---------------------------------------------------------------------------------
     1. (1.97558) BD ( 1) C   1 - C   2  
                ( 49.48%)   0.7034* C   1 s( 35.65%)p 1.80( 64.35%)
                                            0.0000  0.5969 -0.0149 -0.0006  0.0000
                                           -0.7906  0.0228 -0.0119 -0.0012 -0.1240
                                            0.0471  0.0053  0.0005  0.0073 -0.0006
                                           -0.0001  0.0000
                ( 50.52%)   0.7108* C   2 s( 36.14%)p 1.77( 63.86%)
                                           -0.0002  0.6009 -0.0173 -0.0036  0.0005
                                            0.7943 -0.0282 -0.0085  0.0011  0.0713
                                            0.0410 -0.0069 -0.0004 -0.0084  0.0002
                                            0.0000  0.0001
     2. (1.67641) BD ( 2) C   1 - C   2  
                ( 50.34%)   0.7095* C   1 s(  0.00%)p 1.00(100.00%)
                                            0.0000 -0.0001 -0.0009 -0.0003 -0.0001
                                            0.0082  0.0006 -0.0009  0.0000  0.0063
                                           -0.0002 -0.0006 -0.0002  0.9993  0.0338
                                           -0.0129  0.0000
                ( 49.66%)   0.7047* C   2 s(  0.00%)p 1.00(100.00%)
                                            0.0000  0.0036 -0.0018 -0.0010  0.0000
                                            0.0072  0.0035  0.0009  0.0002  0.0078
                                            0.0008  0.0001 -0.0002  0.9994  0.0297
                                            0.0125 -0.0005
     3. (1.98010) BD ( 1) C   1 - C   6  
                ( 50.06%)   0.7075* C   1 s( 35.91%)p 1.78( 64.09%)
                                            0.0000  0.5991 -0.0158 -0.0001  0.0000
                                            0.3370 -0.0507 -0.0022 -0.0004  0.7242
                                           -0.0092  0.0110  0.0007 -0.0073  0.0006
                                           -0.0001  0.0000
                ( 49.94%)   0.7067* C   6 s( 35.82%)p 1.79( 64.18%)
                                            0.0000  0.5983 -0.0156  0.0000  0.0000
                                           -0.2868 -0.0286  0.0094 -0.0007 -0.7461
                                            0.0433  0.0059 -0.0004  0.0083 -0.0001
                                           -0.0001  0.0000
     4. (1.98219) BD ( 1) C   1 - H   7  
                ( 60.36%)   0.7769* C   1 s( 28.48%)p 2.51( 71.52%)
                                            0.0004 -0.5331 -0.0263 -0.0008 -0.0001
                                           -0.5075 -0.0082  0.0025  0.0001  0.6762
                                            0.0129 -0.0038 -0.0001 -0.0002  0.0001
                                           -0.0001  0.0000
                ( 39.64%)   0.6296* H   7 s(100.00%)
                                           -1.0000 -0.0010 -0.0012 -0.0001
     5. (1.97872) BD ( 1) C   2 - C   3  
                ( 48.84%)   0.6988* C   2 s( 35.66%)p 1.80( 64.34%)
                                            0.0000  0.5969 -0.0151  0.0056  0.0003
                                           -0.5062  0.0464  0.0029 -0.0001  0.6203
                                            0.0034 -0.0124  0.0001 -0.0036 -0.0002
                                            0.0004  0.0001
                ( 51.16%)   0.7153* C   3 s( 37.01%)p 1.70( 62.99%)
                                           -0.0001  0.6082  0.0133 -0.0020  0.0001
                                            0.4415  0.0094 -0.0015  0.0055 -0.6587
                                            0.0319 -0.0003 -0.0032  0.0030 -0.0013
                                            0.0004  0.0000
     6. (1.98269) BD ( 1) C   2 - H   8  
                ( 60.27%)   0.7763* C   2 s( 28.26%)p 2.54( 71.74%)
                                            0.0004 -0.5309 -0.0260  0.0019  0.0009
                                            0.3311  0.0146  0.0009  0.0001  0.7794
                                            0.0110  0.0034  0.0002 -0.0067  0.0011
                                            0.0004  0.0001
                ( 39.73%)   0.6303* H   8 s(100.00%)
                                           -1.0000 -0.0011 -0.0013  0.0002
     7. (1.97396) BD ( 1) C   3 - C   4  
                ( 50.64%)   0.7116* C   3 s( 38.39%)p 1.60( 61.61%)
                                            0.0000  0.6195  0.0117  0.0071  0.0000
                                            0.2544  0.0112 -0.0025  0.0049  0.7422
                                           -0.0145 -0.0030  0.0067 -0.0027  0.0016
                                            0.0001 -0.0001
                ( 49.36%)   0.7026* C   4 s( 34.55%)p 1.89( 65.45%)
                                            0.0000  0.5876  0.0125  0.0060 -0.0003
                                           -0.3404  0.0263  0.0007 -0.0006 -0.7333
                                           -0.0004 -0.0061 -0.0029  0.0116 -0.0003
                                           -0.0002 -0.0002
     8. (1.66549) BD ( 2) C   3 - C   4  
                ( 53.91%)   0.7342* C   3 s(  0.00%)p 1.00(100.00%)
                                            0.0000  0.0031  0.0004 -0.0020  0.0001
                                           -0.0065  0.0012 -0.0007  0.0006  0.0033
                                            0.0043 -0.0013  0.0001  0.9998  0.0040
                                            0.0170 -0.0034
                ( 46.09%)   0.6789* C   4 s(  0.01%)p 1.00( 99.99%)
                                            0.0000 -0.0070  0.0016 -0.0009 -0.0001
                                            0.0030 -0.0014 -0.0010  0.0001  0.0088
                                            0.0008 -0.0002 -0.0002  0.9997  0.0102
                                           -0.0161 -0.0006
     9. (1.98356) BD ( 1) C   3 - S  14  
                ( 52.36%)   0.7236* C   3 s( 24.69%)p 3.05( 75.31%)
                                           -0.0001  0.4961 -0.0259 -0.0067 -0.0001
                                           -0.8591 -0.0216  0.0158  0.0060 -0.1189
                                           -0.0064 -0.0042  0.0019 -0.0066 -0.0035
                                           -0.0013 -0.0004
                ( 47.64%)   0.6902* S  14 s( 21.25%)p 3.71( 78.75%)
                                            0.0000  0.0003  0.4589  0.0438 -0.0026
                                           -0.0004  0.0000  0.0002  0.8826  0.0537
                                            0.0049  0.0003  0.0000  0.0000  0.0645
                                            0.0163 -0.0033 -0.0023 -0.0001  0.0000
                                           -0.0340  0.0070 -0.0026  0.0006 -0.0001
    10. (1.97215) BD ( 1) C   4 - C   5  
                ( 51.03%)   0.7144* C   4 s( 35.49%)p 1.82( 64.51%)
                                           -0.0002  0.5957  0.0031 -0.0008  0.0005
                                            0.7953 -0.0093  0.0038  0.0023  0.1079
                                           -0.0294 -0.0046  0.0015  0.0008  0.0006
                                           -0.0003 -0.0001
                ( 48.97%)   0.6998* C   5 s( 35.76%)p 1.80( 64.24%)
                                            0.0001  0.5979 -0.0082  0.0041  0.0010
                                           -0.7966  0.0253  0.0124 -0.0016 -0.0775
                                           -0.0297  0.0075  0.0000  0.0126  0.0008
                                           -0.0001  0.0000
    11. (1.98227) BD ( 1) C   4 - C  11  
                ( 52.11%)   0.7219* C   4 s( 29.97%)p 2.34( 70.03%)
                                           -0.0001  0.5472 -0.0136 -0.0058 -0.0002
                                           -0.5008 -0.0123 -0.0068  0.0015  0.6703
                                            0.0017  0.0071 -0.0019 -0.0006  0.0006
                                           -0.0005  0.0000
                ( 47.89%)   0.6920* C  11 s( 28.03%)p 2.57( 71.97%)
                                            0.0003  0.5292  0.0164  0.0004  0.0000
                                            0.5114 -0.0105 -0.0075  0.0003 -0.6766
                                            0.0046  0.0083  0.0007  0.0085  0.0009
                                           -0.0003  0.0001
    12. (1.97908) BD ( 1) C   5 - C   6  
                ( 50.24%)   0.7088* C   5 s( 35.63%)p 1.81( 64.37%)
                                            0.0000  0.5966 -0.0194 -0.0026 -0.0003
                                            0.5070 -0.0506  0.0000  0.0000 -0.6196
                                           -0.0070  0.0106 -0.0008  0.0009  0.0003
                                           -0.0001  0.0000
                ( 49.76%)   0.7054* C   6 s( 35.85%)p 1.79( 64.15%)
                                            0.0000  0.5986 -0.0146 -0.0008  0.0000
                                           -0.4584 -0.0189  0.0114 -0.0012  0.6546
                                           -0.0493 -0.0047  0.0004  0.0002  0.0006
                                           -0.0001  0.0000
    13. (1.66951) BD ( 2) C   5 - C   6  
                ( 50.43%)   0.7101* C   5 s(  0.00%)p 1.00(100.00%)
                                            0.0000 -0.0039  0.0001  0.0001  0.0000
                                            0.0121 -0.0004  0.0000 -0.0003  0.0076
                                            0.0011  0.0010 -0.0001  0.9994  0.0270
                                            0.0130 -0.0013
                ( 49.57%)   0.7041* C   6 s(  0.00%)p 1.00(100.00%)
                                            0.0000 -0.0008  0.0001  0.0003  0.0001
                                            0.0092  0.0002  0.0001  0.0000  0.0069
                                            0.0003 -0.0001  0.0002  0.9993  0.0333
                                            0.0117  0.0000
    14. (1.98149) BD ( 1) C   5 - H   9  
                ( 60.37%)   0.7770* C   5 s( 28.64%)p 2.49( 71.36%)
                                           -0.0004  0.5347  0.0233 -0.0013 -0.0005
                                            0.3246 -0.0004  0.0010  0.0006  0.7797
                                            0.0152  0.0029 -0.0002 -0.0077  0.0001
                                           -0.0002  0.0000
                ( 39.63%)   0.6295* H   9 s(100.00%)
                                            1.0000  0.0014  0.0012  0.0000
    15. (1.98274) BD ( 1) C   6 - H  10  
                ( 60.28%)   0.7764* C   6 s( 28.38%)p 2.52( 71.62%)
                                           -0.0003  0.5320  0.0263  0.0008  0.0002
                                            0.8398  0.0156  0.0047 -0.0001  0.1028
                                            0.0026  0.0010  0.0000 -0.0080 -0.0002
                                           -0.0001  0.0000
                ( 39.72%)   0.6302* H  10 s(100.00%)
                                            1.0000  0.0011  0.0011  0.0001
    16. (1.98770) BD ( 1) C  11 - H  12  
                ( 60.78%)   0.7796* C  11 s( 23.73%)p 3.21( 76.27%)
                                            0.0001 -0.4871  0.0042  0.0019  0.0002
                                            0.7447  0.0013 -0.0001 -0.0007  0.1873
                                            0.0192 -0.0019  0.0000  0.4155  0.0046
                                            0.0024  0.0002
                ( 39.22%)   0.6263* H  12 s(100.00%)
                                           -1.0000 -0.0006 -0.0007 -0.0002
    17. (1.99008) BD ( 1) C  11 - H  13  
                ( 59.57%)   0.7718* C  11 s( 23.02%)p 3.34( 76.98%)
                                           -0.0001  0.4797 -0.0061 -0.0008  0.0000
                                            0.3862  0.0202  0.0003 -0.0004  0.6612
                                           -0.0024  0.0015 -0.0007 -0.4278 -0.0044
                                           -0.0034  0.0001
                ( 40.43%)   0.6358* H  13 s(100.00%)
                                            1.0000  0.0003  0.0003  0.0002
    18. (1.98420) BD ( 1) C  11 - H  16  
                ( 59.97%)   0.7744* C  11 s( 25.22%)p 2.96( 74.78%)
                                            0.0001 -0.5022  0.0031 -0.0026 -0.0002
                                            0.1851 -0.0109 -0.0004  0.0004 -0.2626
                                            0.0153  0.0020 -0.0012 -0.8026 -0.0003
                                           -0.0066 -0.0020
                ( 40.03%)   0.6327* H  16 s(100.00%)
                                           -1.0000 -0.0007 -0.0002 -0.0002
    19. (1.99081) BD ( 1) S  14 - H  15  
                ( 56.48%)   0.7516* S  14 s( 16.68%)p 5.00( 83.32%)
                                            0.0000  0.0001 -0.4081 -0.0144 -0.0058
                                           -0.0008  0.0001  0.0000  0.1655  0.0413
                                           -0.0034  0.0024 -0.0006  0.0000  0.8082
                                            0.0313 -0.0006 -0.0007  0.0004  0.0000
                                            0.3870  0.0128 -0.0019  0.0021  0.0002
                ( 43.52%)   0.6597* H  15 s(100.00%)
                                           -1.0000 -0.0010 -0.0002 -0.0005
    20. (1.99924) CR ( 1) C   1           s(100.00%)p 0.00(  0.00%)
                                            1.0000  0.0002  0.0000  0.0000  0.0000
                                            0.0002  0.0000  0.0000  0.0000 -0.0002
                                            0.0000  0.0000  0.0000  0.0000  0.0000
                                            0.0000  0.0000
    21. (1.99911) CR ( 1) C   2           s(100.00%)p 0.00(  0.00%)
                                            1.0000  0.0003  0.0000  0.0000  0.0000
                                            0.0000  0.0000  0.0000  0.0000 -0.0002
                                            0.0000  0.0000  0.0000  0.0000  0.0000
                                            0.0000  0.0000
    22. (1.99875) CR ( 1) C   3           s(100.00%)
                                            1.0000  0.0001  0.0000  0.0000  0.0000
                                           -0.0001  0.0000  0.0000  0.0000  0.0000
                                            0.0000  0.0000  0.0000  0.0000  0.0000
                                            0.0000  0.0000
    23. (1.99900) CR ( 1) C   4           s(100.00%)
                                            1.0000  0.0002  0.0000  0.0000  0.0000
                                            0.0001  0.0000  0.0000  0.0000  0.0001
                                            0.0000  0.0000  0.0000  0.0000  0.0000
                                            0.0000  0.0000
    24. (1.99912) CR ( 1) C   5           s(100.00%)p 0.00(  0.00%)
                                            1.0000  0.0002  0.0000  0.0000  0.0000
                                            0.0002  0.0000  0.0000  0.0000  0.0003
                                            0.0000  0.0000  0.0000  0.0000  0.0000
                                            0.0000  0.0000
    25. (1.99924) CR ( 1) C   6           s(100.00%)p 0.00(  0.00%)
                                            1.0000  0.0002  0.0000  0.0000  0.0000
                                            0.0003  0.0000  0.0000  0.0000  0.0000
                                            0.0000  0.0000  0.0000  0.0000  0.0000
                                            0.0000  0.0000
    26. (1.99942) CR ( 1) C  11           s(100.00%)p 0.00(  0.00%)
                                            1.0000 -0.0001  0.0000  0.0000  0.0000
                                           -0.0002  0.0000  0.0000  0.0000  0.0003
                                            0.0000  0.0000  0.0000  0.0000  0.0000
                                            0.0000  0.0000
    27. (2.00000) CR ( 1) S  14           s(100.00%)
                                            1.0000  0.0000  0.0000  0.0000  0.0000
                                            0.0000  0.0000  0.0000  0.0000  0.0000
                                            0.0000  0.0000  0.0000  0.0000  0.0000
                                            0.0000  0.0000  0.0000  0.0000  0.0000
                                            0.0000  0.0000  0.0000  0.0000  0.0000
    28. (1.99943) CR ( 2) S  14           s(100.00%)p 0.00(  0.00%)
                                            0.0000  1.0000  0.0000  0.0000  0.0000
                                            0.0000  0.0000  0.0000 -0.0003  0.0000
                                            0.0000  0.0000  0.0000  0.0000  0.0000
                                            0.0000  0.0000  0.0000  0.0000  0.0000
                                            0.0000  0.0000  0.0000  0.0000  0.0000
    29. (1.99991) CR ( 3) S  14           s(  0.00%)p 1.00(100.00%)
                                            0.0000  0.0000  0.0001  0.0000  0.0000
                                            0.0000  0.0000  1.0000 -0.0002  0.0000
                                            0.0000  0.0000  0.0000  0.0000  0.0000
                                            0.0000  0.0000  0.0000  0.0000  0.0000
                                            0.0000  0.0000  0.0000  0.0000  0.0000
    30. (1.99994) CR ( 4) S  14           s(  0.00%)p 1.00(100.00%)
                                            0.0000  0.0000  0.0001  0.0000  0.0000
                                            0.0000  0.0000  0.0000  0.0000  0.0000
                                            0.0000  0.0000  0.0000  1.0000  0.0001
                                            0.0000  0.0000  0.0000  0.0000  0.0000
                                            0.0001  0.0000  0.0000  0.0000  0.0000
    31. (1.99998) CR ( 5) S  14           s(  0.00%)p 1.00(100.00%)
                                            0.0000  0.0000  0.0000  0.0000  0.0000
                                            0.0000  0.0000  0.0000  0.0000  0.0000
                                            0.0000  0.0000  0.0000  0.0000  0.0000
                                            0.0000  0.0000  0.0000  0.0000  1.0000
                                            0.0000  0.0000  0.0000  0.0000  0.0000
    32. (1.98816) LP ( 1) S  14           s( 61.81%)p 0.62( 38.19%)
                                            0.0000 -0.0001  0.7860 -0.0175 -0.0010
                                           -0.0002  0.0000 -0.0001 -0.4328 -0.0014
                                           -0.0013  0.0005  0.0003 -0.0001  0.4183
                                           -0.0044  0.0045 -0.0020 -0.0005  0.0000
                                            0.1400  0.0003  0.0006 -0.0016 -0.0002
    33. (1.93637) LP ( 2) S  14           s(  0.49%)p99.99( 99.51%)
                                            0.0000  0.0000  0.0699  0.0005  0.0008
                                            0.0004  0.0000  0.0000  0.0284 -0.0006
                                            0.0023 -0.0008  0.0001  0.0000 -0.4062
                                            0.0182  0.0021 -0.0010  0.0002  0.0000
                                            0.9097 -0.0378 -0.0033  0.0009  0.0002
    34. (0.00635) RY*( 1) C   1           s(  0.98%)p99.99( 99.02%)
                                            0.0000 -0.0201  0.0807 -0.0533  0.0086
                                            0.0187 -0.5788 -0.0369 -0.0325 -0.0210
                                            0.8070  0.0126  0.0235  0.0004  0.0032
                                           -0.0018  0.0014
    35. (0.00269) RY*( 2) C   1           s(  0.66%)p99.99( 99.34%)
                                            0.0000  0.0001  0.0722  0.0367  0.0085
                                           -0.0507 -0.7734 -0.1515  0.1296 -0.0342
                                           -0.5612 -0.1661  0.0946  0.0004  0.0162
                                            0.0055 -0.0005
    36. (0.00091) RY*( 3) C   1           s(  0.02%)p99.99( 99.98%)
                                            0.0000  0.0005  0.0094  0.0088  0.0008
                                           -0.0006  0.0129  0.0248  0.0064  0.0000
                                            0.0059  0.0015  0.0010 -0.0347  0.9867
                                           -0.1019  0.1174
    37. (0.00031) RY*( 4) C   1           s( 94.78%)p 0.06(  5.22%)
                                            0.0000  0.0073  0.9721 -0.0312 -0.0417
                                           -0.0173  0.0973  0.0517  0.0633  0.0314
                                           -0.0166 -0.0786 -0.1679  0.0012 -0.0104
                                            0.0074 -0.0031
    38. (0.00022) RY*( 5) C   1           s(  0.13%)p99.99( 99.87%)
                                            0.0000  0.0001  0.0276 -0.0100 -0.0199
                                           -0.0124 -0.1097  0.6827  0.4253 -0.0080
                                           -0.0484  0.5302  0.2329  0.0022 -0.0140
                                            0.0397 -0.0101
    39. (0.00013) RY*( 6) C   1           s( 76.87%)p 0.30( 23.13%)
                                            0.0000  0.0048 -0.0483  0.8749  0.0304
                                            0.0009 -0.0272  0.2894  0.0435 -0.0007
                                            0.0692 -0.2914 -0.2274  0.0012 -0.0064
                                            0.0558 -0.0178
    40. (0.00004) RY*( 7) C   1           s( 12.98%)p 6.71( 87.02%)
    41. (0.00001) RY*( 8) C   1           s(  7.79%)p11.84( 92.21%)
    42. (0.00001) RY*( 9) C   1           s( 14.25%)p 6.02( 85.75%)
    43. (0.00000) RY*(10) C   1           s( 89.87%)p 0.11( 10.13%)
    44. (0.00001) RY*(11) C   1           s(  0.55%)p99.99( 99.45%)
    45. (0.00000) RY*(12) C   1           s(  1.07%)p92.20( 98.93%)
    46. (0.00680) RY*( 1) C   2           s(  2.06%)p47.49( 97.94%)
                                            0.0000  0.0185  0.1220  0.0734 -0.0010
                                           -0.0002 -0.6672  0.0033 -0.0082  0.0392
                                           -0.7271  0.0427 -0.0197  0.0035 -0.0327
                                            0.0223 -0.0080
    47. (0.00315) RY*( 2) C   2           s(  1.76%)p55.74( 98.24%)
                                            0.0000 -0.0112  0.1275  0.0324  0.0137
                                           -0.0486 -0.6992  0.1674  0.0828  0.0209
                                            0.6692 -0.0417 -0.0280  0.0038 -0.0658
                                            0.0304 -0.0121
    48. (0.00119) RY*( 3) C   2           s( 11.29%)p 7.85( 88.71%)
                                            0.0000  0.0036  0.3350  0.0129  0.0228
                                            0.0059  0.0165  0.1626  0.0189  0.0087
                                            0.0053  0.0679 -0.0446 -0.0266  0.9187
                                           -0.0286  0.0883
    49. (0.00080) RY*( 4) C   2           s( 78.20%)p 0.28( 21.80%)
                                            0.0000  0.0058  0.8829  0.0293  0.0392
                                            0.0232  0.1993  0.1477 -0.1399  0.0201
                                           -0.0104  0.0556 -0.0235  0.0120 -0.3559
                                           -0.0711 -0.0178
    50. (0.00024) RY*( 5) C   2           s(  4.82%)p19.73( 95.18%)
                                            0.0000 -0.0050  0.2083 -0.0685  0.0111
                                           -0.0061 -0.0391 -0.6624 -0.0938  0.0071
                                            0.0675 -0.1784  0.0610 -0.0100  0.0889
                                            0.6691 -0.0830
    51. (0.00019) RY*( 6) C   2           s( 22.61%)p 3.42( 77.39%)
                                            0.0000  0.0008 -0.1372  0.4539 -0.0358
                                            0.0037  0.0145  0.3478 -0.6572 -0.0079
                                            0.0189  0.0260  0.3504 -0.0045  0.0246
                                            0.3077 -0.0403
    52. (0.00008) RY*( 7) C   2           s( 42.51%)p 1.35( 57.49%)
    53. (0.00004) RY*( 8) C   2           s(  2.45%)p39.81( 97.55%)
    54. (0.00003) RY*( 9) C   2           s( 25.64%)p 2.90( 74.36%)
    55. (0.00001) RY*(10) C   2           s( 30.68%)p 2.26( 69.32%)
    56. (0.00000) RY*(11) C   2           s( 75.33%)p 0.33( 24.67%)
    57. (0.00000) RY*(12) C   2           s(  2.57%)p37.95( 97.43%)
    58. (0.00671) RY*( 1) C   3           s(  0.37%)p99.99( 99.63%)
                                            0.0000 -0.0017 -0.0417  0.0438  0.0062
                                           -0.0220  0.9904  0.0407  0.0280 -0.0081
                                           -0.1049 -0.0314  0.0173 -0.0006  0.0018
                                           -0.0079 -0.0007
    59. (0.00341) RY*( 2) C   3           s(  1.75%)p56.21( 98.25%)
                                            0.0000 -0.0083  0.0292  0.1287 -0.0024
                                           -0.0191  0.0951  0.0243  0.0459  0.0290
                                            0.9790 -0.0710  0.0015 -0.0053 -0.0388
                                            0.0664  0.0118
    60. (0.00100) RY*( 3) C   3           s( 13.62%)p 6.34( 86.38%)
                                            0.0000  0.0009 -0.2557  0.2660 -0.0011
                                            0.0073 -0.0187 -0.1853  0.0155 -0.0007
                                           -0.0616 -0.0205 -0.0935  0.0033 -0.9004
                                            0.0537 -0.0479
    61. (0.00047) RY*( 4) C   3           s( 80.87%)p 0.24( 19.13%)
                                            0.0000 -0.0038  0.7342 -0.5194  0.0014
                                           -0.0181  0.0491  0.1006  0.0088  0.0033
                                            0.0270 -0.0698  0.0136  0.0021 -0.3919
                                           -0.1348 -0.0276
    62. (0.00019) RY*( 5) C   3           s( 17.82%)p 4.61( 82.18%)
                                            0.0000  0.0013  0.3728  0.1959 -0.0300
                                           -0.0209  0.0171 -0.5616  0.1672 -0.0054
                                           -0.0834 -0.2586 -0.2878 -0.0098  0.1390
                                            0.5418  0.0896
    63. (0.00011) RY*( 6) C   3           s( 19.24%)p 4.20( 80.76%)
                                            0.0000 -0.0034  0.2331  0.3715  0.0051
                                           -0.0032 -0.0389  0.1915 -0.0726 -0.0111
                                           -0.0875 -0.1641  0.8056 -0.0030 -0.0587
                                            0.2652  0.0815
    64. (0.00009) RY*( 7) C   3           s( 33.47%)p 1.99( 66.53%)
    65. (0.00004) RY*( 8) C   3           s(  1.88%)p52.27( 98.12%)
    66. (0.00002) RY*( 9) C   3           s( 14.68%)p 5.81( 85.32%)
    67. (0.00002) RY*(10) C   3           s( 24.64%)p 3.06( 75.36%)
    68. (0.00001) RY*(11) C   3           s( 91.41%)p 0.09(  8.59%)
    69. (0.00000) RY*(12) C   3           s(  0.17%)p99.99( 99.83%)
    70. (0.00648) RY*( 1) C   4           s(  1.81%)p54.19( 98.19%)
                                            0.0000  0.0140  0.1232 -0.0518 -0.0074
                                            0.0092 -0.6959  0.0349 -0.0079 -0.0169
                                            0.7037  0.0247  0.0039 -0.0015  0.0036
                                            0.0009  0.0034
    71. (0.00325) RY*( 2) C   4           s(  0.74%)p99.99( 99.26%)
                                            0.0000 -0.0095  0.0186  0.0830  0.0059
                                           -0.0236 -0.7081 -0.0849  0.0488 -0.0210
                                           -0.6930  0.0094  0.0089 -0.0001  0.0044
                                            0.0131 -0.0036
    72. (0.00223) RY*( 3) C   4           s(  3.19%)p30.39( 96.81%)
                                            0.0000 -0.0010  0.1343 -0.1175  0.0006
                                           -0.0004  0.0209 -0.0900  0.0172  0.0005
                                           -0.0133  0.0354 -0.0047 -0.0103  0.9762
                                           -0.0013  0.0694
    73. (0.00050) RY*( 4) C   4           s( 86.84%)p 0.15( 13.16%)
                                            0.0000 -0.0043  0.9076 -0.2115  0.0037
                                           -0.0069  0.0777  0.0606  0.0651  0.0190
                                           -0.0895 -0.2258 -0.1945  0.0001 -0.1412
[...]
  24. CR (   1) C   5                / 71. RY*(   2) C   4                    2.05   12.16    0.141
  24. CR (   1) C   5                / 95. RY*(   2) C   6                    1.85   12.35    0.135
  24. CR (   1) C   5                /160. BD*(   1) C   1 - C   6            0.71   11.90    0.082
  24. CR (   1) C   5                /164. BD*(   1) C   3 - C   4            0.85   11.89    0.090
  24. CR (   1) C   5                /168. BD*(   1) C   4 - C  11            0.85   11.74    0.090
  25. CR (   1) C   6                / 35. RY*(   2) C   1                    1.57   12.38    0.124
  25. CR (   1) C   6                / 83. RY*(   2) C   5                    1.42   12.26    0.118
  25. CR (   1) C   6                /158. BD*(   1) C   1 - C   2            0.69   11.90    0.081
  25. CR (   1) C   6                /167. BD*(   1) C   4 - C   5            0.78   11.90    0.086
  26. CR (   1) C  11                / 70. RY*(   1) C   4                    1.38   12.33    0.117
  26. CR (   1) C  11                /164. BD*(   1) C   3 - C   4            0.66   11.87    0.079
  26. CR (   1) C  11                /167. BD*(   1) C   4 - C   5            0.63   11.88    0.078
  28. CR (   2) S  14                / 58. RY*(   1) C   3                    1.10   11.04    0.098
  28. CR (   2) S  14                /152. RY*(   1) H  15                    0.69   10.64    0.077
  28. CR (   2) S  14                /162. BD*(   1) C   2 - C   3            0.68   10.74    0.077
  32. LP (   1) S  14                / 58. RY*(   1) C   3                    0.77    1.91    0.034
  32. LP (   1) S  14                /162. BD*(   1) C   2 - C   3            3.54    1.61    0.068
  33. LP (   2) S  14                /162. BD*(   1) C   2 - C   3            1.72    1.18    0.040
  33. LP (   2) S  14                /164. BD*(   1) C   3 - C   4            2.83    1.18    0.052
  33. LP (   2) S  14                /165. BD*(   2) C   3 - C   4            7.74    0.54    0.063
 159. BD*(   2) C   1 - C   2        / 36. RY*(   3) C   1                    3.92    0.43    0.090
 159. BD*(   2) C   1 - C   2        / 44. RY*(  11) C   1                    0.75    0.33    0.034
 159. BD*(   2) C   1 - C   2        / 48. RY*(   3) C   2                    3.35    0.49    0.089
 159. BD*(   2) C   1 - C   2        / 96. RY*(   3) C   6                    0.55    0.42    0.033
 165. BD*(   2) C   3 - C   4        / 48. RY*(   3) C   2                    0.76    0.50    0.040
 165. BD*(   2) C   3 - C   4        / 60. RY*(   3) C   3                    2.12    0.57    0.071
 165. BD*(   2) C   3 - C   4        / 72. RY*(   3) C   4                    3.35    0.58    0.091
 165. BD*(   2) C   3 - C   4        / 84. RY*(   3) C   5                    1.08    0.42    0.044
 165. BD*(   2) C   3 - C   4        /173. BD*(   1) C  11 - H  12            1.92    0.47    0.062
 165. BD*(   2) C   3 - C   4        /175. BD*(   1) C  11 - H  16            2.21    0.47    0.066
 165. BD*(   2) C   3 - C   4        /176. BD*(   1) S  14 - H  15            0.76    0.16    0.023
 170. BD*(   2) C   5 - C   6        / 36. RY*(   3) C   1                    0.58    0.42    0.034
 170. BD*(   2) C   5 - C   6        / 84. RY*(   3) C   5                    4.25    0.41    0.091
 170. BD*(   2) C   5 - C   6        / 92. RY*(  11) C   5                    0.74    0.31    0.033
 170. BD*(   2) C   5 - C   6        / 96. RY*(   3) C   6                    4.22    0.42    0.092
 170. BD*(   2) C   5 - C   6        /104. RY*(  11) C   6                    0.81    0.31    0.035


 Natural Bond Orbitals (Summary):

                                                            Principal Delocalizations
           NBO                        Occupancy    Energy   (geminal,vicinal,remote)
 ====================================================================================
 Molecular unit  1  (C7H8S)
     1. BD (   1) C   1 - C   2          1.97561    -0.92649  166(v),162(g),160(g),59(v)
                                                    172(v),95(v),94(v),163(g)
                                                    161(g)
     2. BD (   2) C   1 - C   2          1.66933    -0.31679  170(v),165(v),96(v),60(v)
     3. BD (   1) C   1 - C   6          1.98114    -0.92539  169(g),158(g),171(v),47(v)
                                                    163(v),83(v),161(g),82(v)
                                                    172(g),46(v)
     4. BD (   1) C   1 - H   7          1.98298    -0.70613  162(v),169(v),94(v),46(v)
                                                    160(g),158(g),172(v),163(v)
     5. BD (   1) C   2 - C   3          1.98069    -0.94979  164(g),168(v),158(g),161(v)
                                                    35(v),34(v),70(v),163(g)
                                                    71(v)
     6. BD (   1) C   2 - H   8          1.98252    -0.70938  164(v),160(v),58(v),34(v)
                                                    162(g),158(g),161(v)
     7. BD (   1) C   3 - C   4          1.97654    -0.94458  167(g),162(g),168(g),46(v)
                                                    171(v),163(v),82(v),118(v)
                                                    47(v),83(v),174(v)
     8. BD (   2) C   3 - C   4          1.66350    -0.32600  159(v),170(v),175(v),48(v)
                                                    173(v),84(v),176(v),120(v)
     9. BD (   1) C   3 - S  14          1.98289    -0.76026  167(v),158(v),70(v),46(v)
                                                    163(v)
    10. BD (   1) C   4 - C   5          1.97203    -0.91851  166(v),164(g),169(g),172(v)
                                                    168(g),95(v),94(v),58(v)
                                                    171(g),118(v)
    11. BD (   1) C   4 - C  11          1.98366    -0.83141  162(v),164(g),169(v),167(g)
                                                    58(v),82(v),175(g),173(g)
    12. BD (   1) C   5 - C   6          1.98037    -0.92627  168(v),167(g),160(g),161(v)
                                                    71(v),35(v),34(v),70(v)
                                                    171(g),172(g)
    13. BD (   2) C   5 - C   6          1.67022    -0.31454  165(v),159(v),36(v),72(v)
    14. BD (   1) C   5 - H   9          1.98260    -0.70163  164(v),160(v),70(v),94(v)
                                                    167(g),169(g),172(v)
    15. BD (   1) C   6 - H  10          1.98329    -0.70708  167(v),158(v),34(v),82(v)
                                                    169(g),160(g),171(v),161(v)
    16. BD (   1) C  11 - H  12          1.98302    -0.67550  165(v),167(v),72(v)
    17. BD (   1) C  11 - H  13          1.99138    -0.67993  164(v)
    18. BD (   1) C  11 - H  16          1.98306    -0.67586  165(v),167(v),72(v)
    19. BD (   1) S  14 - H  15          1.98911    -0.69784  164(v),165(v),166(g)
    20. CR (   1) C   1                  1.99927   -11.10122  95(v),47(v),162(v),169(v)
                                                    46(v),49(v)
    21. CR (   1) C   2                  1.99911   -11.10152  35(v),59(v),58(v),166(v)
                                                    164(v),160(v)
    22. CR (   1) C   3                  1.99873   -11.15044  166(g),71(v),47(v),168(v)
                                                    164(g),167(v),158(v),162(g)
    23. CR (   1) C   4                  1.99901   -11.11221  59(v),83(v),166(v),162(v)
                                                    169(v),164(g),119(v)
    24. CR (   1) C   5                  1.99918   -11.09659  71(v),95(v),164(v),168(v)
                                                    70(v),160(v)
    25. CR (   1) C   6                  1.99927   -11.10193  35(v),83(v),167(v),158(v)
    26. CR (   1) C  11                  1.99940   -11.07951  70(v),164(v),167(v)
    27. CR (   1) S  14                  2.00000   -90.76755   
    28. CR (   2) S  14                  1.99955    -9.95029  58(v),162(v),152(v)
    29. CR (   3) S  14                  1.99993    -6.65138   
    30. CR (   4) S  14                  1.99997    -6.65175   
    31. CR (   5) S  14                  1.99997    -6.65146   
    32. LP (   1) S  14                  1.99091    -0.81536  162(v),58(v)
    33. LP (   2) S  14                  1.96006    -0.38513  165(v),164(v),162(v)
    34. RY*(   1) C   1                  0.00634     1.18457   
    35. RY*(   2) C   1                  0.00255     1.28118   
    36. RY*(   3) C   1                  0.00097     0.58057   
    37. RY*(   4) C   1                  0.00029     0.98501   
    38. RY*(   5) C   1                  0.00020     0.96422   
    39. RY*(   6) C   1                  0.00011     0.94525   
    40. RY*(   7) C   1                  0.00005     3.50593   
    41. RY*(   8) C   1                  0.00001     3.02949   
    42. RY*(   9) C   1                  0.00001     2.06764   
    43. RY*(  10) C   1                  0.00000    21.16711   
    44. RY*(  11) C   1                  0.00001     0.48125   
    45. RY*(  12) C   1                  0.00000     3.00169   
    46. RY*(   1) C   2                  0.00713     1.06366   
    47. RY*(   2) C   2                  0.00307     1.08116   
    48. RY*(   3) C   2                  0.00116     0.64858   
    49. RY*(   4) C   2                  0.00072     0.89884   
    50. RY*(   5) C   2                  0.00019     2.33962   
    51. RY*(   6) C   2                  0.00017     0.55625   
    52. RY*(   7) C   2                  0.00006     1.39458   
    53. RY*(   8) C   2                  0.00004     5.50568   
    54. RY*(   9) C   2                  0.00001     3.05375   
    55. RY*(  10) C   2                  0.00001     1.32291   
    56. RY*(  11) C   2                  0.00000    18.36789   
    57. RY*(  12) C   2                  0.00000     3.10497   
    58. RY*(   1) C   3                  0.00705     1.09471   
    59. RY*(   2) C   3                  0.00410     0.90258   
    60. RY*(   3) C   3                  0.00089     0.71711   
    61. RY*(   4) C   3                  0.00046     0.93014   
    62. RY*(   5) C   3                  0.00019     1.19164   
    63. RY*(   6) C   3                  0.00011     0.82217   
    64. RY*(   7) C   3                  0.00008     1.76992   
    65. RY*(   8) C   3                  0.00004     2.23065   
    66. RY*(   9) C   3                  0.00002     3.44836   
    67. RY*(  10) C   3                  0.00002     2.10502   
    68. RY*(  11) C   3                  0.00000    21.73968   
    69. RY*(  12) C   3                  0.00000     2.81964   
    70. RY*(   1) C   4                  0.00647     1.25235   
    71. RY*(   2) C   4                  0.00331     1.06397   
    72. RY*(   3) C   4                  0.00200     0.73415   
    73. RY*(   4) C   4                  0.00051     0.96676   
    74. RY*(   5) C   4                  0.00023     1.13665   
    75. RY*(   6) C   4                  0.00013     1.58003   
    76. RY*(   7) C   4                  0.00010     2.59049   
    77. RY*(   8) C   4                  0.00004     3.92001   
    78. RY*(   9) C   4                  0.00004     0.62128   
    79. RY*(  10) C   4                  0.00001     1.29880   
    80. RY*(  11) C   4                  0.00001    22.12421   
    81. RY*(  12) C   4                  0.00000     3.00343   
    82. RY*(   1) C   5                  0.00647     1.19992   
    83. RY*(   2) C   5                  0.00254     1.15882   
    84. RY*(   3) C   5                  0.00091     0.56639   
    85. RY*(   4) C   5                  0.00038     0.90237   
    86. RY*(   5) C   5                  0.00014     0.75288   
    87. RY*(   6) C   5                  0.00011     2.73729   
    88. RY*(   7) C   5                  0.00008     0.77040   
    89. RY*(   8) C   5                  0.00004     2.22784   
    90. RY*(   9) C   5                  0.00001     2.52011   
    91. RY*(  10) C   5                  0.00001    23.06765   
    92. RY*(  11) C   5                  0.00001     0.46910   
    93. RY*(  12) C   5                  0.00000     3.04755   
    94. RY*(   1) C   6                  0.00614     1.18609   
    95. RY*(   2) C   6                  0.00268     1.25530   
    96. RY*(   3) C   6                  0.00095     0.57299   
    97. RY*(   4) C   6                  0.00028     1.16052   
    98. RY*(   5) C   6                  0.00021     1.01413   
    99. RY*(   6) C   6                  0.00012     1.27926   
   100. RY*(   7) C   6                  0.00004     2.66054   
   101. RY*(   8) C   6                  0.00000     2.78803   
   102. RY*(   9) C   6                  0.00001     2.17715   
   103. RY*(  10) C   6                  0.00000    21.57738   
   104. RY*(  11) C   6                  0.00000     0.47151   
   105. RY*(  12) C   6                  0.00000     3.07458   
   106. RY*(   1) H   7                  0.00068     0.74813   
   107. RY*(   2) H   7                  0.00018     2.41447   
   108. RY*(   3) H   7                  0.00003     0.22746   
   109. RY*(   1) H   8                  0.00071     0.84710   
   110. RY*(   2) H   8                  0.00019     1.98142   
   111. RY*(   3) H   8                  0.00014     0.59963   
   112. RY*(   1) H   9                  0.00070     0.94839   
   113. RY*(   2) H   9                  0.00018     2.18350   
   114. RY*(   3) H   9                  0.00006     0.29569   
   115. RY*(   1) H  10                  0.00067     0.80182   
   116. RY*(   2) H  10                  0.00018     2.35976   
   117. RY*(   3) H  10                  0.00004     0.22149   
   118. RY*(   1) C  11                  0.00328     0.79864   
   119. RY*(   2) C  11                  0.00075     0.97173   
   120. RY*(   3) C  11                  0.00056     0.76466   
   121. RY*(   4) C  11                  0.00027     0.63657   
   122. RY*(   5) C  11                  0.00011     1.76883   
   123. RY*(   6) C  11                  0.00005     0.84047   
   124. RY*(   7) C  11                  0.00004     1.66846   
   125. RY*(   8) C  11                  0.00001     1.92301   
   126. RY*(   9) C  11                  0.00000     1.73557   
   127. RY*(  10) C  11                  0.00000    23.46911   
   128. RY*(  11) C  11                  0.00001     0.95489   
   129. RY*(  12) C  11                  0.00000     3.16125   
   130. RY*(   1) H  12                  0.00084     0.76304   
   131. RY*(   2) H  12                  0.00026     0.30685   
   132. RY*(   3) H  12                  0.00010     2.46821   
   133. RY*(   1) H  13                  0.00084     0.83099   
   134. RY*(   2) H  13                  0.00015     0.63074   
   135. RY*(   3) H  13                  0.00008     2.01141   
   136. RY*(   1) S  14                  0.00125     0.55515   
   137. RY*(   2) S  14                  0.00057     0.60855   
   138. RY*(   3) S  14                  0.00047     0.52920   
   139. RY*(   4) S  14                  0.00008     0.51997   
   140. RY*(   5) S  14                  0.00005     0.33092   
   141. RY*(   6) S  14                  0.00004     1.12801   
   142. RY*(   7) S  14                  0.00001     0.54213   
   143. RY*(   8) S  14                  0.00002     1.59310   
   144. RY*(   9) S  14                  0.00001     0.98584   
   145. RY*(  10) S  14                  0.00000    14.76628   
   146. RY*(  11) S  14                  0.00001     1.89716   
   147. RY*(  12) S  14                  0.00000    17.97792   
   148. RY*(  13) S  14                  0.00000    18.23176   
   149. RY*(  14) S  14                  0.00000   185.49834   
   150. RY*(  15) S  14                  0.00000     2.07035   
   151. RY*(  16) S  14                  0.00000    17.97179   
   152. RY*(   1) H  15                  0.00071     0.68568   
   153. RY*(   2) H  15                  0.00014     1.06355   
   154. RY*(   3) H  15                  0.00010     1.63269   
   155. RY*(   1) H  16                  0.00093     0.71265   
   156. RY*(   2) H  16                  0.00011     0.80748   
   157. RY*(   3) H  16                  0.00007     2.02682   
   158. BD*(   1) C   1 - C   2          0.01591     0.79981   
   159. BD*(   2) C   1 - C   2          0.32974     0.15379  170(v),165(v),36(g),48(g)
                                                    44(g),96(v)
   160. BD*(   1) C   1 - C   6          0.01403     0.79953   
   161. BD*(   1) C   1 - H   7          0.01073     0.66323   
   162. BD*(   1) C   2 - C   3          0.02140     0.79286   
   163. BD*(   1) C   2 - H   8          0.01186     0.65434   
   164. BD*(   1) C   3 - C   4          0.02906     0.79486   
   165. BD*(   2) C   3 - C   4          0.37329     0.15037  159(v),170(v),72(g),175(v)
                                                    60(g),173(v),84(v),48(v)
                                                    176(v)
   166. BD*(   1) C   3 - S  14          0.02462     0.29522   
   167. BD*(   1) C   4 - C   5          0.02171     0.80001   
   168. BD*(   1) C   4 - C  11          0.01398     0.63928   
   169. BD*(   1) C   5 - C   6          0.01345     0.80411   
   170. BD*(   2) C   5 - C   6          0.33034     0.15653  159(v),165(v),84(g),96(g)
                                                    104(g),92(g),36(v)
   171. BD*(   1) C   5 - H   9          0.01126     0.65837   
   172. BD*(   1) C   6 - H  10          0.01071     0.66393   
   173. BD*(   1) C  11 - H  12          0.00709     0.62168   
   174. BD*(   1) C  11 - H  13          0.00415     0.61665   
   175. BD*(   1) C  11 - H  16          0.00808     0.61595   
   176. BD*(   1) S  14 - H  15          0.00452     0.31136   
       -------------------------------
              Total Lewis   64.65829  ( 97.9671%)
        Valence non-Lewis    1.25592  (  1.9029%)
        Rydberg non-Lewis    0.08579  (  0.1300%)
       -------------------------------
            Total unit  1   66.00000  (100.0000%)
           Charge unit  1    0.00000
 1|1|UNPC-DESKTOP-2TIS01M|FOpt|RMP2-FC|6-311++G|C7H8S1|APPLE|20-Aug-202
 0|0||# opt mp2/6-311++g pop=nbo geom=connectivity||Title Card Required
 ||0,1|C,-3.7386602484,-0.5274717719,0.0183213201|C,-2.3377462646,-0.52
 58540483,-0.1050730071|C,-1.6245389744,0.6861246314,-0.0424626156|C,-2
 .3017082274,1.9267147976,-0.0097437695|C,-3.7122280871,1.9025830566,0.
 0874443942|C,-4.433545781,0.6958909808,0.0562452931|H,-4.2820343049,-1
 .4687454225,-0.0201176859|H,-1.7945814356,-1.4663130618,-0.1612375727|
 H,-4.2487399262,2.8502530046,0.1067524035|H,-5.5176150859,0.7084995445
 ,0.1409092087|C,-1.5601253605,3.2491810377,0.0190056217|H,-0.838166790
 5,3.2808358304,0.8431460776|H,-2.2718868319,4.0722741715,0.1501379601|
 S,0.2396592856,0.681217378,-0.235384738|H,0.4591092081,-0.3080791133,0
 .7085457074|H,-1.0058496755,3.4233071148,-0.9122317776||Version=IA32W-
 G09RevC.01|State=1-A|HF=-667.1799458|MP2=-667.9168584|RMSD=3.468e-009|
 RMSF=1.060e-005|Dipole=-0.4173074,-0.1097924,0.302116|PG=C01 [X(C7H8S1
 )]||@


 GARLIC THEN HAVE POWER TO SAVE FROM DEATH
 BEAR WITH IT THOUGH IT MAKETH UNSAVORY BREATH,
 AND SCORN NOT GARLIC LIKE SOME THAT THINK
 IT ONLY MAKETH MEN WINK AND DRINK AND STINK.
   --  SIR JOHN HARRINGTON,
       "THE ENGLISHMAN'S DOCTOR", 1609
 Job cpu time:  0 days  0 hours 40 minutes 44.0 seconds.
 File lengths (MBytes):  RWF=   1536 Int=      0 D2E=      0 Chk=      4 Scr=      1
 Normal termination of Gaussian 09 at Thu Aug 20 12:18:28 2020.
