 argument  1 = /Users/apple/Desktop/王应泽/本科生科研/Science_Denmark/复现/NWChem_calc/1/1.nw



============================== echo of input deck ==============================
echo
title 1_ESP_Calculation
start 1

geometry
	C	-1.9446183747120243 	-0.8329759215652542 	0.041421734585929
	N	-1.4460400850974167 	0.5129134405511218  	0.5465409502203131
	C	-2.482324629267097  	1.0914262271202217  	1.5049842195861842
	C	-1.287738348838005  	1.4609842293804738  	-0.6329700926135834
	C	-0.11727086526640645	0.35884414086401567 	1.3167429378082576
	C	1.0510615430854682  	-0.20232587024487958	0.5459030425380698
	C	1.2888861863603072  	-1.5859074204773442 	0.5127174856231451
	C	2.364652301213475   	-2.1041723383568565 	-0.21000186490918452
	C	3.2183489827703275  	-1.248387241875957  	-0.9012946480060214
	C	3.0035496133900197  	0.1269890111369856  	-0.8659342954244272
	C	1.9288836720710612  	0.6491067042434182  	-0.14435146335758417
	H	-1.999526625057846  	-1.5234298005082199 	0.8880734115596668
	H	-2.9379043136831946 	-0.6905050009201368 	-0.39568472199427496
	H	-1.2587730603958491 	-1.2059104457654624 	-0.7235332436423617
	H	-2.125628763400638  	2.064502853222152   	1.8556468133092572
	H	-2.602123181948173  	0.40050548567507593 	2.344836458127501
	H	-3.429258906052087  	1.2048796978248508  	0.9685524738175075
	H	-0.8745118819340889 	2.4053487955226447  	-0.2669313023513931
	H	-0.6255896101037626 	1.0053029336654313  	-1.373598170835282
	H	-2.274430561865702  	1.626483667326629   	-1.0768467911293507
	H	-0.3278374851000228 	-0.27762821849315616	2.1861671474176014
	H	0.13896856624648646 	1.3525399970651875  	1.706926310362727
	H	0.6502513190700706  	-2.279323849529251  	1.0565232917846452
	H	2.5468135102696983  	-3.1770393826690966 	-0.2285342760317451
	H	4.060702145002699   	-1.653460280207776  	-1.4586810453730612
	H	3.6833404490005615  	0.7919429054289047  	-1.3953586289953774
	H	1.7981184042418694  	1.7292956815869098  	-0.12197037607592169
end

charge 1

basis
	* library 6-31G*
end

driver
	maxiter 100
	xyz 1
end

dft
	xc b3lyp
	maxiter 2000
end
task dft optimize

esp
	recalculate
	range 0.2
	probe 0.1
	spacing 0.025
end
task esp
================================================================================


                                         
                                         


             Northwest Computational Chemistry Package (NWChem) 7.0.0
             --------------------------------------------------------


                    Environmental Molecular Sciences Laboratory
                       Pacific Northwest National Laboratory
                                Richland, WA 99352

                              Copyright (c) 1994-2019
                       Pacific Northwest National Laboratory
                            Battelle Memorial Institute

             NWChem is an open-source computational chemistry package
                        distributed under the terms of the
                      Educational Community License (ECL) 2.0
             A copy of the license is included with this distribution
                              in the LICENSE.TXT file

                                  ACKNOWLEDGMENT
                                  --------------

            This software and its documentation were developed at the
            EMSL at Pacific Northwest National Laboratory, a multiprogram
            national laboratory, operated for the U.S. Department of Energy
            by Battelle under Contract Number DE-AC05-76RL01830. Support
            for this work was provided by the Department of Energy Office
            of Biological and Environmental Research, Office of Basic
            Energy Sciences, and the Office of Advanced Scientific Computing.


           Job information
           ---------------

    hostname        = appledeMacBook-Pro.local
    program         = nwchem
    date            = Wed Aug  5 00:15:06 2020

    compiled        = Fri_Jul_03_06:05:09_2020
    source          = /private/tmp/nwchem-20200703-71421-tc8c0i/nwchem-7.0.0
    nwchem branch   = 7.0.0
    nwchem revision = 2c9a1c7c
    ga revision     = 5.7.1
    use scalapack   = T
    input           = /Users/apple/Desktop/王应泽/本科生科研/Science_Denmark/复现/NWChem_calc/1/1.nw
    prefix          = 1.
    data base       = ./1.db
    status          = startup
    nproc           =        1
    time left       =     -1s



           Memory information
           ------------------

    heap     =   13107196 doubles =    100.0 Mbytes
    stack    =   13107201 doubles =    100.0 Mbytes
    global   =   26214400 doubles =    200.0 Mbytes (distinct from heap & stack)
    total    =   52428797 doubles =    400.0 Mbytes
    verify   = yes
    hardfail = no 


           Directory information
           ---------------------

  0 permanent = .
  0 scratch   = .




                                NWChem Input Module
                                -------------------


                                 1_ESP_Calculation
                                 -----------------

 Scaling coordinates for geometry "geometry" by  1.889725989
 (inverse scale =  0.529177249)

 CS  symmetry detected

          ------
          auto-z
          ------
  no constraints, skipping    0.0000000000000000     
  no constraints, skipping    0.0000000000000000     


                             Geometry "geometry" -> ""
                             -------------------------

 Output coordinates in angstroms (scale by  1.889725989 to convert to a.u.)

  No.       Tag          Charge          X              Y              Z
 ---- ---------------- ---------- -------------- -------------- --------------
    1 C                    6.0000    -0.95194671     1.79824158    -1.23981338
    2 N                    7.0000    -0.07610331     1.90266886     0.00000000
    3 C                    6.0000     0.61348530     3.26342003     0.00000000
    4 C                    6.0000    -0.95194671     1.79824158     1.23981338
    5 C                    6.0000     1.01761264     0.81346662     0.00000000
    6 C                    6.0000     0.54659835    -0.61910172     0.00000000
    7 C                    6.0000     0.32796370    -1.30101289    -1.20795535
    8 C                    6.0000    -0.11812248    -2.62358531    -1.20587293
    9 C                    6.0000    -0.34423148    -3.28221693     0.00000000
   10 C                    6.0000    -0.11812248    -2.62358531     1.20587293
   11 C                    6.0000     0.32796370    -1.30101289     1.20795535
   12 H                    1.0000    -0.30731613     1.81617512    -2.12338146
   13 H                    1.0000    -1.63488603     2.65347051    -1.25225953
   14 H                    1.0000    -1.52850113     0.87077023    -1.19509103
   15 H                    1.0000     1.23199063     3.33902174     0.89933874
   16 H                    1.0000     1.23199063     3.33902174    -0.89933874
   17 H                    1.0000    -0.15362782     4.04371016     0.00000000
   18 H                    1.0000    -0.30731613     1.81617512     2.12338146
   19 H                    1.0000    -1.52850113     0.87077023     1.19509103
   20 H                    1.0000    -1.63488603     2.65347051     1.25225953
   21 H                    1.0000     1.64643041     0.99694602    -0.88105449
   22 H                    1.0000     1.64643041     0.99694602     0.88105449
   23 H                    1.0000     0.51202218    -0.81970553    -2.16653391
   24 H                    1.0000    -0.28161089    -3.14863227    -2.14511031
   25 H                    1.0000    -0.68543015    -4.31561235     0.00000000
   26 H                    1.0000    -0.28161089    -3.14863227     2.14511031
   27 H                    1.0000     0.51202218    -0.81970553     2.16653391

      Atomic Mass 
      ----------- 

      C                 12.000000
      N                 14.003070
      H                  1.007825


 Effective nuclear repulsion energy (a.u.)     622.9577219445

            Nuclear Dipole moment (a.u.) 
            ----------------------------
        X                 Y               Z
 ---------------- ---------------- ----------------
     0.0000000000     0.0000000000    -0.0000000000

      Symmetry information
      --------------------

 Group name             Cs        
 Group number              2
 Group order               2
 No. of unique centers    17

      Symmetry unique atoms

     1    2    3    5    6    7    8    9   12   13   14   15   17   21   23
    24   25



                                Z-matrix (autoz)
                                -------- 

 Units are Angstrom for bonds and degrees for angles

      Type          Name      I     J     K     L     M      Value
      ----------- --------  ----- ----- ----- ----- ----- ----------
    1 Stretch                  1     2                       1.52156
    2 Stretch                  1    12                       1.09388
    3 Stretch                  1    13                       1.09452
    4 Stretch                  1    14                       1.09299
    5 Stretch                  2     3                       1.52551
    6 Stretch                  2     4                       1.52156
    7 Stretch                  2     5                       1.54356
    8 Stretch                  3    15                       1.09411
    9 Stretch                  3    16                       1.09411
   10 Stretch                  3    17                       1.09422
   11 Stretch                  4    18                       1.09388
   12 Stretch                  4    19                       1.09299
   13 Stretch                  4    20                       1.09452
   14 Stretch                  5     6                       1.50801
   15 Stretch                  5    21                       1.09788
   16 Stretch                  5    22                       1.09788
   17 Stretch                  6     7                       1.40426
   18 Stretch                  6    11                       1.40426
   19 Stretch                  7     8                       1.39578
   20 Stretch                  7    23                       1.08830
   21 Stretch                  8     9                       1.39250
   22 Stretch                  8    24                       1.08838
   23 Stretch                  9    10                       1.39250
   24 Stretch                  9    25                       1.08827
   25 Stretch                 10    11                       1.39578
   26 Stretch                 10    26                       1.08838
   27 Stretch                 11    27                       1.08830
   28 Bend                     1     2     3               108.74899
   29 Bend                     1     2     4               109.14123
   30 Bend                     1     2     5               111.06566
   31 Bend                     2     1    12               108.53161
   32 Bend                     2     1    13               108.34903
   33 Bend                     2     1    14               109.18022
   34 Bend                     2     3    15               108.49221
   35 Bend                     2     3    16               108.49221
   36 Bend                     2     3    17               108.61335
   37 Bend                     2     4    18               108.53161
   38 Bend                     2     4    19               109.18022
   39 Bend                     2     4    20               108.34903
   40 Bend                     2     5     6               116.68117
   41 Bend                     2     5    21               106.73282
   42 Bend                     2     5    22               106.73282
   43 Bend                     3     2     4               108.74899
   44 Bend                     3     2     5               108.00698
   45 Bend                     4     2     5               111.06566
   46 Bend                     5     6     7               120.65950
   47 Bend                     5     6    11               120.65950
   48 Bend                     6     5    21               109.73417
   49 Bend                     6     5    22               109.73417
   50 Bend                     6     7     8               120.57110
   51 Bend                     6     7    23               121.10299
   52 Bend                     6    11    10               120.57110
   53 Bend                     6    11    27               121.10299
   54 Bend                     7     6    11               118.67915
   55 Bend                     7     8     9               120.09040
   56 Bend                     7     8    24               120.25374
   57 Bend                     8     7    23               118.32190
   58 Bend                     8     9    10               119.98920
   59 Bend                     8     9    25               120.00310
   60 Bend                     9     8    24               119.65309
   61 Bend                     9    10    11               120.09040
   62 Bend                     9    10    26               119.65309
   63 Bend                    10     9    25               120.00310
   64 Bend                    10    11    27               118.32190
   65 Bend                    11    10    26               120.25374
   66 Bend                    12     1    13               110.22520
   67 Bend                    12     1    14               110.96672
   68 Bend                    13     1    14               109.53421
   69 Bend                    15     3    16               110.56753
   70 Bend                    15     3    17               110.30626
   71 Bend                    16     3    17               110.30626
   72 Bend                    18     4    19               110.96672
   73 Bend                    18     4    20               110.22520
   74 Bend                    19     4    20               109.53421
   75 Bend                    21     5    22               106.74047
   76 Torsion                  1     2     3    15         179.29044
   77 Torsion                  1     2     3    16         -60.54672
   78 Torsion                  1     2     3    17          59.37186
   79 Torsion                  1     2     4    18         176.76591
   80 Torsion                  1     2     4    19          55.68977
   81 Torsion                  1     2     4    20         -63.54281
   82 Torsion                  1     2     5     6         -60.83105
   83 Torsion                  1     2     5    21          62.24047
   84 Torsion                  1     2     5    22         176.09742
   85 Torsion                  2     5     6     7          90.25102
   86 Torsion                  2     5     6    11         -90.25102
   87 Torsion                  3     2     1    12          64.73711
   88 Torsion                  3     2     1    13         -54.95417
   89 Torsion                  3     2     1    14        -174.18674
   90 Torsion                  3     2     4    18         -64.73711
   91 Torsion                  3     2     4    19         174.18674
   92 Torsion                  3     2     4    20          54.95417
   93 Torsion                  3     2     5     6         180.00000
   94 Torsion                  3     2     5    21         -56.92847
   95 Torsion                  3     2     5    22          56.92847
   96 Torsion                  4     2     1    12        -176.76591
   97 Torsion                  4     2     1    13          63.54281
   98 Torsion                  4     2     1    14         -55.68977
   99 Torsion                  4     2     3    15          60.54672
  100 Torsion                  4     2     3    16        -179.29044
  101 Torsion                  4     2     3    17         -59.37186
  102 Torsion                  4     2     5     6          60.83105
  103 Torsion                  4     2     5    21        -176.09742
  104 Torsion                  4     2     5    22         -62.24047
  105 Torsion                  5     2     1    12         -53.98612
  106 Torsion                  5     2     1    13        -173.67739
  107 Torsion                  5     2     1    14          67.09003
  108 Torsion                  5     2     3    15         -60.08142
  109 Torsion                  5     2     3    16          60.08142
  110 Torsion                  5     2     3    17         180.00000
  111 Torsion                  5     2     4    18          53.98612
  112 Torsion                  5     2     4    19         -67.09003
  113 Torsion                  5     2     4    20         173.67739
  114 Torsion                  5     6     7     8        -179.49148
  115 Torsion                  5     6     7    23           1.24939
  116 Torsion                  5     6    11    10         179.49148
  117 Torsion                  5     6    11    27          -1.24939
  118 Torsion                  6     7     8     9          -0.33183
  119 Torsion                  6     7     8    24        -179.72477
  120 Torsion                  6    11    10     9           0.33183
  121 Torsion                  6    11    10    26         179.72477
  122 Torsion                  7     6     5    21         -31.25555
  123 Torsion                  7     6     5    22        -148.24240
  124 Torsion                  7     6    11    10          -1.00078
  125 Torsion                  7     6    11    27         178.25836
  126 Torsion                  7     8     9    10          -0.35694
  127 Torsion                  7     8     9    25        -179.57678
  128 Torsion                  8     7     6    11           1.00078
  129 Torsion                  8     9    10    11           0.35694
  130 Torsion                  8     9    10    26        -179.03966
  131 Torsion                  9     8     7    23         178.94756
  132 Torsion                  9    10    11    27        -178.94756
  133 Torsion                 10     9     8    24         179.03966
  134 Torsion                 11     6     5    21         148.24240
  135 Torsion                 11     6     5    22          31.25555
  136 Torsion                 11     6     7    23        -178.25836
  137 Torsion                 11    10     9    25         179.57678
  138 Torsion                 23     7     8    24          -0.44538
  139 Torsion                 24     8     9    25          -0.18019
  140 Torsion                 25     9    10    26           0.18019
  141 Torsion                 26    10    11    27           0.44538


            XYZ format geometry
            -------------------
    27
 geometry
 C                    -0.95194671     1.79824158    -1.23981338
 N                    -0.07610331     1.90266886     0.00000000
 C                     0.61348530     3.26342003     0.00000000
 C                    -0.95194671     1.79824158     1.23981338
 C                     1.01761264     0.81346662     0.00000000
 C                     0.54659835    -0.61910172     0.00000000
 C                     0.32796370    -1.30101289    -1.20795535
 C                    -0.11812248    -2.62358531    -1.20587293
 C                    -0.34423148    -3.28221693     0.00000000
 C                    -0.11812248    -2.62358531     1.20587293
 C                     0.32796370    -1.30101289     1.20795535
 H                    -0.30731613     1.81617512    -2.12338146
 H                    -1.63488603     2.65347051    -1.25225953
 H                    -1.52850113     0.87077023    -1.19509103
 H                     1.23199063     3.33902174     0.89933874
 H                     1.23199063     3.33902174    -0.89933874
 H                    -0.15362782     4.04371016     0.00000000
 H                    -0.30731613     1.81617512     2.12338146
 H                    -1.52850113     0.87077023     1.19509103
 H                    -1.63488603     2.65347051     1.25225953
 H                     1.64643041     0.99694602    -0.88105449
 H                     1.64643041     0.99694602     0.88105449
 H                     0.51202218    -0.81970553    -2.16653391
 H                    -0.28161089    -3.14863227    -2.14511031
 H                    -0.68543015    -4.31561235     0.00000000
 H                    -0.28161089    -3.14863227     2.14511031
 H                     0.51202218    -0.81970553     2.16653391

 ==============================================================================
                                internuclear distances
 ------------------------------------------------------------------------------
       center one      |      center two      | atomic units |  angstroms
 ------------------------------------------------------------------------------
    2 N                |   1 C                |     2.87533  |     1.52156
    3 C                |   2 N                |     2.88279  |     1.52551
    4 C                |   2 N                |     2.87533  |     1.52156
    5 C                |   2 N                |     2.91690  |     1.54356
    6 C                |   5 C                |     2.84973  |     1.50801
    7 C                |   6 C                |     2.65368  |     1.40426
    8 C                |   7 C                |     2.63764  |     1.39578
    9 C                |   8 C                |     2.63144  |     1.39250
   10 C                |   9 C                |     2.63144  |     1.39250
   11 C                |   6 C                |     2.65368  |     1.40426
   11 C                |  10 C                |     2.63764  |     1.39578
   12 H                |   1 C                |     2.06712  |     1.09388
   13 H                |   1 C                |     2.06835  |     1.09452
   14 H                |   1 C                |     2.06544  |     1.09299
   15 H                |   3 C                |     2.06757  |     1.09411
   16 H                |   3 C                |     2.06757  |     1.09411
   17 H                |   3 C                |     2.06777  |     1.09422
   18 H                |   4 C                |     2.06712  |     1.09388
   19 H                |   4 C                |     2.06544  |     1.09299
   20 H                |   4 C                |     2.06835  |     1.09452
   21 H                |   5 C                |     2.07469  |     1.09788
   22 H                |   5 C                |     2.07469  |     1.09788
   23 H                |   7 C                |     2.05660  |     1.08830
   24 H                |   8 C                |     2.05674  |     1.08838
   25 H                |   9 C                |     2.05652  |     1.08827
   26 H                |  10 C                |     2.05674  |     1.08838
   27 H                |  11 C                |     2.05660  |     1.08830
 ------------------------------------------------------------------------------
                         number of included internuclear distances:         27
 ==============================================================================



 ==============================================================================
                                 internuclear angles
 ------------------------------------------------------------------------------
        center 1       |       center 2       |       center 3       |  degrees
 ------------------------------------------------------------------------------
    2 N                |   1 C                |  12 H                |   108.53
    2 N                |   1 C                |  13 H                |   108.35
    2 N                |   1 C                |  14 H                |   109.18
   12 H                |   1 C                |  13 H                |   110.23
   12 H                |   1 C                |  14 H                |   110.97
   13 H                |   1 C                |  14 H                |   109.53
    1 C                |   2 N                |   3 C                |   108.75
    1 C                |   2 N                |   4 C                |   109.14
    1 C                |   2 N                |   5 C                |   111.07
    3 C                |   2 N                |   4 C                |   108.75
    3 C                |   2 N                |   5 C                |   108.01
    4 C                |   2 N                |   5 C                |   111.07
    2 N                |   3 C                |  15 H                |   108.49
    2 N                |   3 C                |  16 H                |   108.49
    2 N                |   3 C                |  17 H                |   108.61
   15 H                |   3 C                |  16 H                |   110.57
   15 H                |   3 C                |  17 H                |   110.31
   16 H                |   3 C                |  17 H                |   110.31
    2 N                |   4 C                |  18 H                |   108.53
    2 N                |   4 C                |  19 H                |   109.18
    2 N                |   4 C                |  20 H                |   108.35
   18 H                |   4 C                |  19 H                |   110.97
   18 H                |   4 C                |  20 H                |   110.23
   19 H                |   4 C                |  20 H                |   109.53
    2 N                |   5 C                |   6 C                |   116.68
    2 N                |   5 C                |  21 H                |   106.73
    2 N                |   5 C                |  22 H                |   106.73
    6 C                |   5 C                |  21 H                |   109.73
    6 C                |   5 C                |  22 H                |   109.73
   21 H                |   5 C                |  22 H                |   106.74
    5 C                |   6 C                |   7 C                |   120.66
    5 C                |   6 C                |  11 C                |   120.66
    7 C                |   6 C                |  11 C                |   118.68
    6 C                |   7 C                |   8 C                |   120.57
    6 C                |   7 C                |  23 H                |   121.10
    8 C                |   7 C                |  23 H                |   118.32
    7 C                |   8 C                |   9 C                |   120.09
    7 C                |   8 C                |  24 H                |   120.25
    9 C                |   8 C                |  24 H                |   119.65
    8 C                |   9 C                |  10 C                |   119.99
    8 C                |   9 C                |  25 H                |   120.00
   10 C                |   9 C                |  25 H                |   120.00
    9 C                |  10 C                |  11 C                |   120.09
    9 C                |  10 C                |  26 H                |   119.65
   11 C                |  10 C                |  26 H                |   120.25
    6 C                |  11 C                |  10 C                |   120.57
    6 C                |  11 C                |  27 H                |   121.10
   10 C                |  11 C                |  27 H                |   118.32
 ------------------------------------------------------------------------------
                            number of included internuclear angles:         48
 ==============================================================================



  library name resolved from: .nwchemrc
  library file name is: </usr/local/Cellar/nwchem/7.0.0_2/share/nwchem/libraries/>
  


 Summary of "ao basis" -> "" (cartesian)
 ------------------------------------------------------------------------------
       Tag                 Description            Shells   Functions and Types
 ---------------- ------------------------------  ------  ---------------------
 *                           6-31G*                   on all atoms 




                           NWChem Geometry Optimization
                           ----------------------------




                                 1_ESP_Calculation


  no constraints, skipping    0.0000000000000000     
 maximum gradient threshold         (gmax) =   0.000450
 rms gradient threshold             (grms) =   0.000300
 maximum cartesian step threshold   (xmax) =   0.001800
 rms cartesian step threshold       (xrms) =   0.001200
 fixed trust radius                (trust) =   0.300000
 maximum step size to saddle      (sadstp) =   0.100000
 energy precision                  (eprec) =   5.0D-06
 maximum number of steps          (nptopt) =  100
 initial hessian option           (inhess) =    0
 line search option               (linopt) =    1
 hessian update option            (modupd) =    1
 saddle point option              (modsad) =    0
 initial eigen-mode to follow     (moddir) =    0
 initial variable to follow       (vardir) =    0
 follow first negative mode     (firstneg) =    T
 apply conjugacy                    (opcg) =    F
 source of zmatrix                         =   autoz   


          -------------------
          Energy Minimization
          -------------------


 Names of Z-matrix variables 
    1              2              3              4              5         
    6              7              8              9             10         
   11             12             13             14             15         
   16             17             18             19             20         
   21             22             23             24             25         
   26             27             28             29             30         
   31             32             33             34             35         
   36             37             38             39             40         
   41             42             43             44             45         
   46             47             48             49             50         
   51             52             53             54             55         
   56             57             58             59             60         
   61             62             63             64             65         
   66             67             68             69             70         
   71             72             73             74             75         
   76             77             78             79             80         
   81             82             83             84             85         
   86             87             88             89             90         
   91             92             93             94             95         
   96             97             98             99            100         
  101            102            103            104            105         
  106            107            108            109            110         
  111            112            113            114            115         
  116            117            118            119            120         
  121            122            123            124            125         
  126            127            128            129            130         
  131            132            133            134            135         
  136            137            138            139            140         
  141         

 Variables with the same non-blank name are constrained to be equal


 Using diagonal initial Hessian 
 Scaling for Hessian diagonals: bonds = 1.00  angles = 0.25  torsions = 0.10

          --------
          Step   0
          --------


                         Geometry "geometry" -> "geometry"
                         ---------------------------------

 Output coordinates in angstroms (scale by  1.889725989 to convert to a.u.)

  No.       Tag          Charge          X              Y              Z
 ---- ---------------- ---------- -------------- -------------- --------------
    1 C                    6.0000    -0.95194671     1.79824158    -1.23981338
    2 N                    7.0000    -0.07610331     1.90266886     0.00000000
    3 C                    6.0000     0.61348530     3.26342003     0.00000000
    4 C                    6.0000    -0.95194671     1.79824158     1.23981338
    5 C                    6.0000     1.01761264     0.81346662     0.00000000
    6 C                    6.0000     0.54659835    -0.61910172     0.00000000
    7 C                    6.0000     0.32796370    -1.30101289    -1.20795535
    8 C                    6.0000    -0.11812248    -2.62358531    -1.20587293
    9 C                    6.0000    -0.34423148    -3.28221693     0.00000000
   10 C                    6.0000    -0.11812248    -2.62358531     1.20587293
   11 C                    6.0000     0.32796370    -1.30101289     1.20795535
   12 H                    1.0000    -0.30731613     1.81617512    -2.12338146
   13 H                    1.0000    -1.63488603     2.65347051    -1.25225953
   14 H                    1.0000    -1.52850113     0.87077023    -1.19509103
   15 H                    1.0000     1.23199063     3.33902174     0.89933874
   16 H                    1.0000     1.23199063     3.33902174    -0.89933874
   17 H                    1.0000    -0.15362782     4.04371016     0.00000000
   18 H                    1.0000    -0.30731613     1.81617512     2.12338146
   19 H                    1.0000    -1.52850113     0.87077023     1.19509103
   20 H                    1.0000    -1.63488603     2.65347051     1.25225953
   21 H                    1.0000     1.64643041     0.99694602    -0.88105449
   22 H                    1.0000     1.64643041     0.99694602     0.88105449
   23 H                    1.0000     0.51202218    -0.81970553    -2.16653391
   24 H                    1.0000    -0.28161089    -3.14863227    -2.14511031
   25 H                    1.0000    -0.68543015    -4.31561235     0.00000000
   26 H                    1.0000    -0.28161089    -3.14863227     2.14511031
   27 H                    1.0000     0.51202218    -0.81970553     2.16653391

      Atomic Mass 
      ----------- 

      C                 12.000000
      N                 14.003070
      H                  1.007825


 Effective nuclear repulsion energy (a.u.)     622.9577219445

            Nuclear Dipole moment (a.u.) 
            ----------------------------
        X                 Y               Z
 ---------------- ---------------- ----------------
     0.0000000000     0.0000000000    -0.0000000000

      Symmetry information
      --------------------

 Group name             Cs        
 Group number              2
 Group order               2
 No. of unique centers    17

      Symmetry unique atoms

     1    2    3    5    6    7    8    9   12   13   14   15   17   21   23
    24   25


                                 NWChem DFT Module
                                 -----------------


                                 1_ESP_Calculation


                      Basis "ao basis" -> "ao basis" (cartesian)
                      -----
  C (Carbon)
  ----------
            Exponent  Coefficients 
       -------------- ---------------------------------------------------------
  1 S  3.04752490E+03  0.001835
  1 S  4.57369510E+02  0.014037
  1 S  1.03948690E+02  0.068843
  1 S  2.92101550E+01  0.232184
  1 S  9.28666300E+00  0.467941
  1 S  3.16392700E+00  0.362312

  2 S  7.86827240E+00 -0.119332
  2 S  1.88128850E+00 -0.160854
  2 S  5.44249300E-01  1.143456

  3 P  7.86827240E+00  0.068999
  3 P  1.88128850E+00  0.316424
  3 P  5.44249300E-01  0.744308

  4 S  1.68714400E-01  1.000000

  5 P  1.68714400E-01  1.000000

  6 D  8.00000000E-01  1.000000

  N (Nitrogen)
  ------------
            Exponent  Coefficients 
       -------------- ---------------------------------------------------------
  1 S  4.17351100E+03  0.001835
  1 S  6.27457900E+02  0.013995
  1 S  1.42902100E+02  0.068587
  1 S  4.02343300E+01  0.232241
  1 S  1.28202100E+01  0.469070
  1 S  4.39043700E+00  0.360455

  2 S  1.16263580E+01 -0.114961
  2 S  2.71628000E+00 -0.169118
  2 S  7.72218000E-01  1.145852

  3 P  1.16263580E+01  0.067580
  3 P  2.71628000E+00  0.323907
  3 P  7.72218000E-01  0.740895

  4 S  2.12031300E-01  1.000000

  5 P  2.12031300E-01  1.000000

  6 D  8.00000000E-01  1.000000

  H (Hydrogen)
  ------------
            Exponent  Coefficients 
       -------------- ---------------------------------------------------------
  1 S  1.87311370E+01  0.033495
  1 S  2.82539370E+00  0.234727
  1 S  6.40121700E-01  0.813757

  2 S  1.61277800E-01  1.000000



 Summary of "ao basis" -> "ao basis" (cartesian)
 ------------------------------------------------------------------------------
       Tag                 Description            Shells   Functions and Types
 ---------------- ------------------------------  ------  ---------------------
 C                           6-31G*                  6       15   3s2p1d
 N                           6-31G*                  6       15   3s2p1d
 H                           6-31G*                  2        2   2s




 Summary of "ao basis" -> "ao basis" (cartesian)
 ------------------------------------------------------------------------------
       Tag                 Description            Shells   Functions and Types
 ---------------- ------------------------------  ------  ---------------------
 C                           6-31G*                  6       15   3s2p1d
 N                           6-31G*                  6       15   3s2p1d
 H                           6-31G*                  2        2   2s


      Symmetry analysis of basis
      --------------------------

        a'        118
        a"         79

  Caching 1-el integrals 

            General Information
            -------------------
          SCF calculation type: DFT
          Wavefunction type:  closed shell.
          No. of atoms     :    27
          No. of electrons :    82
           Alpha electrons :    41
            Beta electrons :    41
          Charge           :     1
          Spin multiplicity:     1
          Use of symmetry is: on ; symmetry adaption is: on 
          Maximum number of iterations: ***
          AO basis - number of functions:   197
                     number of shells:    98
          Convergence on energy requested:  1.00D-06
          Convergence on density requested:  1.00D-05
          Convergence on gradient requested:  5.00D-04

              XC Information
              --------------
                         B3LYP Method XC Potential
                     Hartree-Fock (Exact) Exchange  0.200          
                        Slater Exchange Functional  0.800 local    
                    Becke 1988 Exchange Functional  0.720 non-local
              Lee-Yang-Parr Correlation Functional  0.810          
                  VWN I RPA Correlation Functional  0.190 local    

             Grid Information
             ----------------
          Grid used for XC integration:  medium    
          Radial quadrature: Mura-Knowles        
          Angular quadrature: Lebedev. 
          Tag              B.-S. Rad. Rad. Pts. Rad. Cut. Ang. Pts.
          ---              ---------- --------- --------- ---------
          C                   0.70       49          14.0       434
          N                   0.65       49          14.0       434
          H                   0.35       45          14.0       434
          Grid pruning is: on 
          Number of quadrature shells:   797
          Spatial weights used:  Erf1

          Convergence Information
          -----------------------
          Convergence aids based upon iterative change in 
          total energy or number of iterations. 
          Levelshifting, if invoked, occurs when the 
          HOMO/LUMO gap drops below (HL_TOL):  1.00D-02
          DIIS, if invoked, will attempt to extrapolate 
          using up to (NFOCK): 10 stored Fock matrices.

                    Damping( 0%)  Levelshifting(0.5)       DIIS
                  --------------- ------------------- ---------------
          dE  on:    start            ASAP                start   
          dE off:    2 iters        *** iters           *** iters 


      Screening Tolerance Information
      -------------------------------
          Density screening/tol_rho:  1.00D-10
          AO Gaussian exp screening on grid/accAOfunc:  14
          CD Gaussian exp screening on grid/accCDfunc:  20
          XC Gaussian exp screening on grid/accXCfunc:  20
          Schwarz screening/accCoul:  1.00D-08


      Superposition of Atomic Density Guess
      -------------------------------------

 Sum of atomic energies:        -438.86800036

 Renormalizing density from      83.00 to     82

      Non-variational initial energy
      ------------------------------

 Total energy =    -442.797968
 1-e energy   =   -1803.840927
 2-e energy   =     738.085236
 HOMO         =      -0.494198
 LUMO         =      -0.216158


      Symmetry analysis of molecular orbitals - initial
      -------------------------------------------------

  Numbering of irreducible representations: 

     1 a'          2 a"      

  Orbital symmetries:

     1 a'          2 a'          3 a'          4 a'          5 a"      
     6 a'          7 a'          8 a"          9 a"         10 a'      
    11 a'         12 a'         13 a'         14 a'         15 a"      
    16 a"         17 a'         18 a'         19 a'         20 a"      
    21 a'         22 a'         23 a'         24 a"         25 a'      
    26 a'         27 a"         28 a"         29 a'         30 a"      
    31 a'         32 a'         33 a"         34 a'         35 a"      
    36 a'         37 a"         38 a'         39 a"         40 a"      
    41 a'         42 a'         43 a"         44 a'         45 a'      
    46 a'         47 a'         48 a"         49 a'         50 a"      
    51 a'      

   Time after variat. SCF:      3.7
   Time prior to 1st pass:      3.7

 Integral file          = ./1.aoints.0
 Record size in doubles =  65536        No. of integs per rec  =  43688
 Max. records in memory =      0        Max. records in file   = 174083
 No. of bits per label  =      8        No. of bits per value  =     64


 #quartets = 3.636D+06 #integrals = 5.359D+07 #direct =  0.0% #cached =100.0%


 Grid_pts file          = ./1.gridpts.0
 Record size in doubles =  12289        No. of grid_pts per rec  =   3070
 Max. records in memory =    125        Max. recs in file   =    917154


           Memory utilization after 1st SCF pass: 
           Heap Space remaining (MW):       11.55            11553164
          Stack Space remaining (MW):       13.11            13105204

   convergence    iter        energy       DeltaE   RMS-Dens  Diis-err    time
 ---------------- ----- ----------------- --------- --------- ---------  ------
 d= 0,ls=0.0,diis     1   -445.0874734844 -1.07D+03  7.48D-03  1.47D+00    22.6
 d= 0,ls=0.0,diis     2   -445.1660925041 -7.86D-02  4.75D-03  4.53D-01    30.2
 d= 0,ls=0.0,diis     3   -445.1922519378 -2.62D-02  1.73D-03  2.47D-01    37.1
 d= 0,ls=0.0,diis     4   -445.2187937798 -2.65D-02  3.95D-04  1.05D-02    44.4
 d= 0,ls=0.0,diis     5   -445.2199771971 -1.18D-03  5.95D-05  1.61D-04    51.4
  Resetting Diis
 d= 0,ls=0.0,diis     6   -445.2199925462 -1.53D-05  2.94D-05  3.04D-05    58.5
 d= 0,ls=0.0,diis     7   -445.2199957943 -3.25D-06  2.77D-05  5.81D-06    66.4
 d= 0,ls=0.0,diis     8   -445.2199935045  2.29D-06  1.89D-05  2.16D-05    74.0
 d= 0,ls=0.0,diis     9   -445.2199966132 -3.11D-06  1.17D-06  8.72D-08    82.0
 d= 0,ls=0.0,diis    10   -445.2199966242 -1.10D-08  2.26D-07  3.96D-09    89.1


         Total DFT energy =     -445.219996624169
      One electron energy =    -1821.166263482903
           Coulomb energy =      819.814989600454
    Exchange-Corr. energy =      -66.826444686193
 Nuclear repulsion energy =      622.957721944473

 Numeric. integr. density =       82.000040238376

     Total iterative time =     85.4s



                  Occupations of the irreducible representations
                  ----------------------------------------------

                     irrep           alpha         beta
                     --------     --------     --------
                     a'               26.0         26.0
                     a"               15.0         15.0


                       DFT Final Molecular Orbital Analysis
                       ------------------------------------

 Vector    1  Occ=2.000000D+00  E=-1.462803D+01  Symmetry=a'
              MO Center= -7.6D-02,  1.9D+00, -1.0D-18, r^2= 2.0D-02
   Bfn.  Coefficient  Atom+Function         Bfn.  Coefficient  Atom+Function  
  ----- ------------  ---------------      ----- ------------  ---------------
    16      0.992730   2 N  s                17      0.034553   2 N  s         

 Vector    2  Occ=2.000000D+00  E=-1.040176D+01  Symmetry=a'
              MO Center=  6.1D-01,  3.3D+00, -3.1D-21, r^2= 2.8D-02
   Bfn.  Coefficient  Atom+Function         Bfn.  Coefficient  Atom+Function  
  ----- ------------  ---------------      ----- ------------  ---------------
    31      0.992945   3 C  s                32      0.049967   3 C  s         

 Vector    3  Occ=2.000000D+00  E=-1.040136D+01  Symmetry=a'
              MO Center=  1.0D+00,  8.1D-01,  8.1D-22, r^2= 2.8D-02
   Bfn.  Coefficient  Atom+Function         Bfn.  Coefficient  Atom+Function  
  ----- ------------  ---------------      ----- ------------  ---------------
    61      0.993084   5 C  s                62      0.050210   5 C  s         

 Vector    4  Occ=2.000000D+00  E=-1.039808D+01  Symmetry=a"
              MO Center= -9.5D-01,  1.8D+00, -1.4D-09, r^2= 1.6D+00
   Bfn.  Coefficient  Atom+Function         Bfn.  Coefficient  Atom+Function  
  ----- ------------  ---------------      ----- ------------  ---------------
     1      0.702178   1 C  s                46     -0.702178   4 C  s         
     2      0.035548   1 C  s                47     -0.035548   4 C  s         

 Vector    5  Occ=2.000000D+00  E=-1.039807D+01  Symmetry=a'
              MO Center= -9.5D-01,  1.8D+00,  1.4D-09, r^2= 1.6D+00
   Bfn.  Coefficient  Atom+Function         Bfn.  Coefficient  Atom+Function  
  ----- ------------  ---------------      ----- ------------  ---------------
     1      0.702071   1 C  s                46      0.702071   4 C  s         
     2      0.035018   1 C  s                47      0.035018   4 C  s         

 Vector    6  Occ=2.000000D+00  E=-1.034068D+01  Symmetry=a'
              MO Center=  5.5D-01, -6.2D-01, -7.4D-15, r^2= 2.9D-02
   Bfn.  Coefficient  Atom+Function         Bfn.  Coefficient  Atom+Function  
  ----- ------------  ---------------      ----- ------------  ---------------
    76      0.992603   6 C  s                77      0.049799   6 C  s         

 Vector    7  Occ=2.000000D+00  E=-1.032538D+01  Symmetry=a"
              MO Center=  3.3D-01, -1.3D+00,  7.8D-15, r^2= 1.5D+00
   Bfn.  Coefficient  Atom+Function         Bfn.  Coefficient  Atom+Function  
  ----- ------------  ---------------      ----- ------------  ---------------
    91      0.701785   7 C  s               151     -0.701785  11 C  s         
    92      0.035207   7 C  s               152     -0.035207  11 C  s         

 Vector    8  Occ=2.000000D+00  E=-1.032537D+01  Symmetry=a'
              MO Center=  3.3D-01, -1.3D+00,  3.0D-17, r^2= 1.5D+00
   Bfn.  Coefficient  Atom+Function         Bfn.  Coefficient  Atom+Function  
  ----- ------------  ---------------      ----- ------------  ---------------
    91      0.701637   7 C  s               151      0.701637  11 C  s         
    92      0.035320   7 C  s               152      0.035320  11 C  s         

 Vector    9  Occ=2.000000D+00  E=-1.031491D+01  Symmetry=a'
              MO Center= -1.5D-01, -2.7D+00, -1.3D-16, r^2= 1.3D+00
   Bfn.  Coefficient  Atom+Function         Bfn.  Coefficient  Atom+Function  
  ----- ------------  ---------------      ----- ------------  ---------------
   106      0.654638   8 C  s               136      0.654638  10 C  s         
   121      0.357252   9 C  s               107      0.032704   8 C  s         
   137      0.032704  10 C  s         

 Vector   10  Occ=2.000000D+00  E=-1.031476D+01  Symmetry=a"
              MO Center= -1.2D-01, -2.6D+00,  5.8D-16, r^2= 1.5D+00
   Bfn.  Coefficient  Atom+Function         Bfn.  Coefficient  Atom+Function  
  ----- ------------  ---------------      ----- ------------  ---------------
   106      0.701769   8 C  s               136     -0.701769  10 C  s         
   107      0.035149   8 C  s               137     -0.035149  10 C  s         

 Vector   11  Occ=2.000000D+00  E=-1.031373D+01  Symmetry=a'
              MO Center= -3.1D-01, -3.2D+00,  1.7D-17, r^2= 2.7D-01
   Bfn.  Coefficient  Atom+Function         Bfn.  Coefficient  Atom+Function  
  ----- ------------  ---------------      ----- ------------  ---------------
   121      0.926313   9 C  s               106     -0.253009   8 C  s         
   136     -0.253009  10 C  s               122      0.046815   9 C  s         

 Vector   12  Occ=2.000000D+00  E=-1.167655D+00  Symmetry=a'
              MO Center= -7.7D-02,  1.9D+00,  5.8D-17, r^2= 1.1D+00
   Bfn.  Coefficient  Atom+Function         Bfn.  Coefficient  Atom+Function  
  ----- ------------  ---------------      ----- ------------  ---------------
    21      0.422198   2 N  s                17      0.377967   2 N  s         
    16     -0.182778   2 N  s                32      0.112093   3 C  s         
     2      0.110349   1 C  s                47      0.110349   4 C  s         
    62      0.107771   5 C  s                34     -0.063808   3 C  py        
    31     -0.059836   3 C  s                 1     -0.058985   1 C  s         

 Vector   13  Occ=2.000000D+00  E=-9.900678D-01  Symmetry=a'
              MO Center=  2.6D-01, -1.3D+00,  1.6D-18, r^2= 2.8D+00
   Bfn.  Coefficient  Atom+Function         Bfn.  Coefficient  Atom+Function  
  ----- ------------  ---------------      ----- ------------  ---------------
    77      0.228301   6 C  s                92      0.178630   7 C  s         
   152      0.178630  11 C  s               107      0.145461   8 C  s         
   137      0.145461  10 C  s               122      0.136467   9 C  s         
    81      0.129912   6 C  s                76     -0.118218   6 C  s         
    96      0.115087   7 C  s               156      0.115087  11 C  s         

 Vector   14  Occ=2.000000D+00  E=-9.243779D-01  Symmetry=a'
              MO Center=  3.2D-01, -3.8D-01,  2.9D-17, r^2= 5.5D+00
   Bfn.  Coefficient  Atom+Function         Bfn.  Coefficient  Atom+Function  
  ----- ------------  ---------------      ----- ------------  ---------------
    62      0.260608   5 C  s                66      0.225111   5 C  s         
   122     -0.177877   9 C  s               107     -0.139426   8 C  s         
   137     -0.139426  10 C  s                61     -0.133301   5 C  s         
    77      0.132713   6 C  s               126     -0.120430   9 C  s         
    19     -0.112444   2 N  py               18      0.103775   2 N  px        

 Vector   15  Occ=2.000000D+00  E=-9.059222D-01  Symmetry=a'
              MO Center=  1.4D-02,  2.5D+00, -6.3D-18, r^2= 2.8D+00
   Bfn.  Coefficient  Atom+Function         Bfn.  Coefficient  Atom+Function  
  ----- ------------  ---------------      ----- ------------  ---------------
    32      0.298338   3 C  s                36      0.273922   3 C  s         
    18      0.179920   2 N  px                2     -0.162387   1 C  s         
    47     -0.162387   4 C  s                31     -0.152684   3 C  s         
     6     -0.148080   1 C  s                51     -0.148080   4 C  s         
    19      0.137489   2 N  py              172      0.101317  15 H  s         

 Vector   16  Occ=2.000000D+00  E=-9.051566D-01  Symmetry=a"
              MO Center= -7.2D-01,  1.8D+00,  1.3D-15, r^2= 2.7D+00
   Bfn.  Coefficient  Atom+Function         Bfn.  Coefficient  Atom+Function  
  ----- ------------  ---------------      ----- ------------  ---------------
     2      0.265785   1 C  s                47     -0.265785   4 C  s         
     6      0.241900   1 C  s                51     -0.241900   4 C  s         
    20     -0.227328   2 N  pz                1     -0.136173   1 C  s         
    46      0.136173   4 C  s                24     -0.112085   2 N  pz        
   166      0.096488  12 H  s               178     -0.096488  18 H  s         

 Vector   17  Occ=2.000000D+00  E=-8.731532D-01  Symmetry=a"
              MO Center=  1.2D-01, -1.8D+00,  2.3D-15, r^2= 3.1D+00
   Bfn.  Coefficient  Atom+Function         Bfn.  Coefficient  Atom+Function  
  ----- ------------  ---------------      ----- ------------  ---------------
    92      0.230149   7 C  s               152     -0.230149  11 C  s         
   107      0.213516   8 C  s               137     -0.213516  10 C  s         
    96      0.174627   7 C  s               156     -0.174627  11 C  s         
   111      0.161864   8 C  s               141     -0.161864  10 C  s         
    80     -0.125659   6 C  pz               91     -0.116504   7 C  s         

 Vector   18  Occ=2.000000D+00  E=-8.543157D-01  Symmetry=a'
              MO Center=  1.2D-01, -3.2D-01,  1.3D-15, r^2= 7.2D+00
   Bfn.  Coefficient  Atom+Function         Bfn.  Coefficient  Atom+Function  
  ----- ------------  ---------------      ----- ------------  ---------------
   122      0.208616   9 C  s                77     -0.172505   6 C  s         
   126      0.155208   9 C  s                36     -0.148401   3 C  s         
    81     -0.142322   6 C  s                32     -0.139908   3 C  s         
    62      0.136570   5 C  s                19     -0.124024   2 N  py        
    21      0.124569   2 N  s                66      0.123936   5 C  s         

 Vector   19  Occ=2.000000D+00  E=-7.885464D-01  Symmetry=a'
              MO Center= -8.0D-02,  1.2D+00, -5.8D-16, r^2= 6.4D+00
   Bfn.  Coefficient  Atom+Function         Bfn.  Coefficient  Atom+Function  
  ----- ------------  ---------------      ----- ------------  ---------------
    21      0.340185   2 N  s                17      0.212415   2 N  s         
    66     -0.177322   5 C  s                 6     -0.172458   1 C  s         
    51     -0.172458   4 C  s                36     -0.147737   3 C  s         
    62     -0.146239   5 C  s                 2     -0.137110   1 C  s         
    47     -0.137110   4 C  s               122     -0.118353   9 C  s         

 Vector   20  Occ=2.000000D+00  E=-7.360014D-01  Symmetry=a"
              MO Center=  1.4D-01, -1.8D+00,  6.9D-16, r^2= 4.1D+00
   Bfn.  Coefficient  Atom+Function         Bfn.  Coefficient  Atom+Function  
  ----- ------------  ---------------      ----- ------------  ---------------
    80      0.217028   6 C  pz              125     -0.196975   9 C  pz        
   107      0.193222   8 C  s               137     -0.193222  10 C  s         
    92     -0.157049   7 C  s               152      0.157049  11 C  s         
   111      0.143014   8 C  s               141     -0.143014  10 C  s         
    96     -0.133408   7 C  s               156      0.133408  11 C  s         

 Vector   21  Occ=2.000000D+00  E=-7.244608D-01  Symmetry=a'
              MO Center=  8.8D-02, -9.5D-01, -3.2D-15, r^2= 6.1D+00
   Bfn.  Coefficient  Atom+Function         Bfn.  Coefficient  Atom+Function  
  ----- ------------  ---------------      ----- ------------  ---------------
    77      0.195663   6 C  s               122      0.175837   9 C  s         
    81      0.163036   6 C  s                64     -0.151997   5 C  py        
    18     -0.140706   2 N  px              126      0.131322   9 C  s         
    95      0.127033   7 C  pz              155     -0.127033  11 C  pz        
    94      0.108444   7 C  py              110      0.108898   8 C  pz        

 Vector   22  Occ=2.000000D+00  E=-6.812608D-01  Symmetry=a'
              MO Center=  1.5D-01,  1.7D+00,  2.4D-15, r^2= 3.8D+00
   Bfn.  Coefficient  Atom+Function         Bfn.  Coefficient  Atom+Function  
  ----- ------------  ---------------      ----- ------------  ---------------
    19      0.298625   2 N  py               63      0.208480   5 C  px        
    23      0.195073   2 N  py               33     -0.179901   3 C  px        
     4      0.173275   1 C  py               49      0.173275   4 C  py        
    66      0.157476   5 C  s                36     -0.132130   3 C  s         
    34     -0.108414   3 C  py              172     -0.091760  15 H  s         

 Vector   23  Occ=2.000000D+00  E=-6.777854D-01  Symmetry=a"
              MO Center= -3.0D-01,  1.8D+00,  1.4D-15, r^2= 3.8D+00
   Bfn.  Coefficient  Atom+Function         Bfn.  Coefficient  Atom+Function  
  ----- ------------  ---------------      ----- ------------  ---------------
    20      0.312915   2 N  pz               24      0.198835   2 N  pz        
     3     -0.194193   1 C  px               48      0.194193   4 C  px        
    35      0.191662   3 C  pz               65      0.160446   5 C  pz        
     6      0.138916   1 C  s                51     -0.138916   4 C  s         
   170      0.098322  14 H  s               180     -0.098322  19 H  s         

 Vector   24  Occ=2.000000D+00  E=-6.702930D-01  Symmetry=a'
              MO Center= -6.7D-02,  9.4D-01, -3.2D-16, r^2= 6.7D+00
   Bfn.  Coefficient  Atom+Function         Bfn.  Coefficient  Atom+Function  
  ----- ------------  ---------------      ----- ------------  ---------------
    18      0.255272   2 N  px               34     -0.191971   3 C  py        
     5     -0.172166   1 C  pz               50      0.172166   4 C  pz        
    22      0.162760   2 N  px               79     -0.147118   6 C  py        
    95      0.124748   7 C  pz              155     -0.124748  11 C  pz        
    64      0.117383   5 C  py               19      0.110889   2 N  py        

 Vector   25  Occ=2.000000D+00  E=-6.371217D-01  Symmetry=a'
              MO Center=  4.5D-02, -1.1D+00, -7.8D-15, r^2= 7.0D+00
   Bfn.  Coefficient  Atom+Function         Bfn.  Coefficient  Atom+Function  
  ----- ------------  ---------------      ----- ------------  ---------------
   124      0.194966   9 C  py               95      0.134341   7 C  pz        
   155     -0.134341  11 C  pz              192     -0.130866  25 H  s         
    94     -0.126087   7 C  py              154     -0.126087  11 C  py        
    63      0.114455   5 C  px              188     -0.111418  23 H  s         
   196     -0.111418  27 H  s               110      0.108072   8 C  pz        

 Vector   26  Occ=2.000000D+00  E=-6.095438D-01  Symmetry=a"
              MO Center=  1.5D-01,  7.8D-01, -8.4D-16, r^2= 7.0D+00
   Bfn.  Coefficient  Atom+Function         Bfn.  Coefficient  Atom+Function  
  ----- ------------  ---------------      ----- ------------  ---------------
    65     -0.234410   5 C  pz               35      0.216906   3 C  pz        
     4     -0.176639   1 C  py               49      0.176639   4 C  py        
   125     -0.142616   9 C  pz               69     -0.141036   5 C  pz        
   109     -0.133360   8 C  py              139      0.133360  10 C  py        
    39      0.115773   3 C  pz               80     -0.111567   6 C  pz        

 Vector   27  Occ=2.000000D+00  E=-6.017541D-01  Symmetry=a'
              MO Center= -1.0D-01,  1.3D+00, -3.5D-15, r^2= 7.8D+00
   Bfn.  Coefficient  Atom+Function         Bfn.  Coefficient  Atom+Function  
  ----- ------------  ---------------      ----- ------------  ---------------
    33      0.208166   3 C  px               34     -0.182730   3 C  py        
   176     -0.167719  17 H  s                 3     -0.163071   1 C  px        
    48     -0.163071   4 C  px               63      0.115982   5 C  px        
    37      0.113597   3 C  px              124     -0.113602   9 C  py        
   177     -0.109531  17 H  s               166     -0.107781  12 H  s         

 Vector   28  Occ=2.000000D+00  E=-5.835248D-01  Symmetry=a"
              MO Center= -2.9D-01,  7.4D-01, -8.3D-16, r^2= 7.1D+00
   Bfn.  Coefficient  Atom+Function         Bfn.  Coefficient  Atom+Function  
  ----- ------------  ---------------      ----- ------------  ---------------
    80     -0.179609   6 C  pz                4      0.174156   1 C  py        
    49     -0.174156   4 C  py                3     -0.156171   1 C  px        
    48      0.156171   4 C  px              125     -0.154259   9 C  pz        
    35     -0.148604   3 C  pz               20      0.144990   2 N  pz        
   168      0.142183  13 H  s               182     -0.142183  20 H  s         

 Vector   29  Occ=2.000000D+00  E=-5.816247D-01  Symmetry=a'
              MO Center=  1.2D-01, -6.0D-01,  2.0D-15, r^2= 9.5D+00
   Bfn.  Coefficient  Atom+Function         Bfn.  Coefficient  Atom+Function  
  ----- ------------  ---------------      ----- ------------  ---------------
    81      0.203038   6 C  s               110     -0.159297   8 C  pz        
   140      0.159297  10 C  pz               34     -0.149402   3 C  py        
    33      0.148515   3 C  px              190      0.145502  24 H  s         
   194      0.145502  26 H  s               126     -0.136655   9 C  s         
   176     -0.129483  17 H  s                77      0.124748   6 C  s         

 Vector   30  Occ=2.000000D+00  E=-5.665941D-01  Symmetry=a'
              MO Center= -9.1D-02,  2.1D+00, -1.9D-13, r^2= 3.8D+00
   Bfn.  Coefficient  Atom+Function         Bfn.  Coefficient  Atom+Function  
  ----- ------------  ---------------      ----- ------------  ---------------
    18      0.308504   2 N  px               33     -0.253126   3 C  px        
     3     -0.210537   1 C  px               48     -0.210537   4 C  px        
    63     -0.170543   5 C  px               22      0.167239   2 N  px        
   176      0.143773  17 H  s                37     -0.122449   3 C  px        
    64      0.119688   5 C  py              177      0.115712  17 H  s         

 Vector   31  Occ=2.000000D+00  E=-5.660010D-01  Symmetry=a"
              MO Center= -3.9D-01,  2.1D+00,  1.5D-13, r^2= 4.0D+00
   Bfn.  Coefficient  Atom+Function         Bfn.  Coefficient  Atom+Function  
  ----- ------------  ---------------      ----- ------------  ---------------
    35      0.281681   3 C  pz                4      0.217624   1 C  py        
    49     -0.217624   4 C  py              170     -0.166616  14 H  s         
   180      0.166616  19 H  s               172      0.148763  15 H  s         
   174     -0.148763  16 H  s                 3      0.145827   1 C  px        
    48     -0.145827   4 C  px               39      0.136287   3 C  pz        

 Vector   32  Occ=2.000000D+00  E=-5.641210D-01  Symmetry=a"
              MO Center= -3.3D-01,  2.0D+00, -1.3D-14, r^2= 4.1D+00
   Bfn.  Coefficient  Atom+Function         Bfn.  Coefficient  Atom+Function  
  ----- ------------  ---------------      ----- ------------  ---------------
     5      0.272029   1 C  pz               50      0.272029   4 C  pz        
    20     -0.267926   2 N  pz               35      0.183506   3 C  pz        
   166     -0.175322  12 H  s               178      0.175322  18 H  s         
    24     -0.151036   2 N  pz              167     -0.149342  12 H  s         
   179      0.149342  18 H  s                 9      0.119738   1 C  pz        

 Vector   33  Occ=2.000000D+00  E=-5.596723D-01  Symmetry=a'
              MO Center= -6.5D-01,  1.7D+00,  6.1D-14, r^2= 4.3D+00
   Bfn.  Coefficient  Atom+Function         Bfn.  Coefficient  Atom+Function  
  ----- ------------  ---------------      ----- ------------  ---------------
     4      0.257511   1 C  py               49      0.257511   4 C  py        
    19     -0.252854   2 N  py               33      0.181876   3 C  px        
    63     -0.155513   5 C  px              170     -0.145826  14 H  s         
   180     -0.145826  19 H  s               168      0.143914  13 H  s         
   182      0.143914  20 H  s                23     -0.137063   2 N  py        

 Vector   34  Occ=2.000000D+00  E=-5.484579D-01  Symmetry=a"
              MO Center=  1.9D-01, -1.4D+00, -8.8D-15, r^2= 5.1D+00
   Bfn.  Coefficient  Atom+Function         Bfn.  Coefficient  Atom+Function  
  ----- ------------  ---------------      ----- ------------  ---------------
    95      0.236288   7 C  pz              155      0.236288  11 C  pz        
   110      0.216258   8 C  pz              140      0.216258  10 C  pz        
    80     -0.178252   6 C  pz               65      0.138628   5 C  pz        
   125     -0.138777   9 C  pz              188     -0.125639  23 H  s         
   196      0.125639  27 H  s               190     -0.123584  24 H  s         

 Vector   35  Occ=2.000000D+00  E=-5.427041D-01  Symmetry=a'
              MO Center=  1.9D-01, -1.2D+00,  7.4D-16, r^2= 6.4D+00
   Bfn.  Coefficient  Atom+Function         Bfn.  Coefficient  Atom+Function  
  ----- ------------  ---------------      ----- ------------  ---------------
    79      0.287598   6 C  py              124      0.268573   9 C  py        
    64     -0.222877   5 C  py              110      0.153392   8 C  pz        
   140     -0.153392  10 C  pz              192     -0.150814  25 H  s         
    95     -0.144840   7 C  pz              155      0.144840  11 C  pz        
    34     -0.141954   3 C  py               63     -0.134945   5 C  px        

 Vector   36  Occ=2.000000D+00  E=-5.385477D-01  Symmetry=a"
              MO Center=  5.6D-01, -4.4D-01, -8.4D-15, r^2= 5.0D+00
   Bfn.  Coefficient  Atom+Function         Bfn.  Coefficient  Atom+Function  
  ----- ------------  ---------------      ----- ------------  ---------------
    65      0.302348   5 C  pz               94      0.214790   7 C  py        
   154     -0.214790  11 C  py              109     -0.195399   8 C  py        
   139      0.195399  10 C  py              184     -0.167400  21 H  s         
   186      0.167400  22 H  s               185     -0.140924  21 H  s         
   187      0.140924  22 H  s                69      0.138155   5 C  pz        

 Vector   37  Occ=2.000000D+00  E=-4.916509D-01  Symmetry=a'
              MO Center=  1.3D-01, -1.7D+00,  7.2D-16, r^2= 3.3D+00
   Bfn.  Coefficient  Atom+Function         Bfn.  Coefficient  Atom+Function  
  ----- ------------  ---------------      ----- ------------  ---------------
    78      0.223268   6 C  px               93      0.222889   7 C  px        
   153      0.222889  11 C  px              123      0.206956   9 C  px        
   108      0.185554   8 C  px              138      0.185554  10 C  px        
    82      0.130620   6 C  px               97      0.128913   7 C  px        
   157      0.128913  11 C  px              127      0.111162   9 C  px        

 Vector   38  Occ=2.000000D+00  E=-4.737535D-01  Symmetry=a'
              MO Center=  1.9D-02, -2.1D+00,  1.7D-14, r^2= 4.6D+00
   Bfn.  Coefficient  Atom+Function         Bfn.  Coefficient  Atom+Function  
  ----- ------------  ---------------      ----- ------------  ---------------
   124      0.260157   9 C  py               94      0.241456   7 C  py        
   154      0.241456  11 C  py              109     -0.228886   8 C  py        
   139     -0.228886  10 C  py              192     -0.192379  25 H  s         
   193     -0.187359  25 H  s                64      0.180088   5 C  py        
    79     -0.160571   6 C  py               66     -0.132439   5 C  s         

 Vector   39  Occ=2.000000D+00  E=-4.696340D-01  Symmetry=a"
              MO Center=  7.9D-02, -2.1D+00, -9.4D-15, r^2= 4.3D+00
   Bfn.  Coefficient  Atom+Function         Bfn.  Coefficient  Atom+Function  
  ----- ------------  ---------------      ----- ------------  ---------------
   125     -0.277013   9 C  pz              110      0.259040   8 C  pz        
   140      0.259040  10 C  pz               80      0.253230   6 C  pz        
    95     -0.209071   7 C  pz              155     -0.209071  11 C  pz        
   191     -0.161416  24 H  s               195      0.161416  26 H  s         
   190     -0.158719  24 H  s               194      0.158719  26 H  s         

 Vector   40  Occ=2.000000D+00  E=-3.824758D-01  Symmetry=a'
              MO Center=  8.4D-02, -1.9D+00,  6.4D-15, r^2= 3.5D+00
   Bfn.  Coefficient  Atom+Function         Bfn.  Coefficient  Atom+Function  
  ----- ------------  ---------------      ----- ------------  ---------------
    78      0.327499   6 C  px              123     -0.323471   9 C  px        
   127     -0.218627   9 C  px               82      0.211370   6 C  px        
   108     -0.178001   8 C  px              138     -0.178001  10 C  px        
    21      0.168218   2 N  s                93      0.129553   7 C  px        
   153      0.129553  11 C  px              112     -0.124902   8 C  px        

 Vector   41  Occ=2.000000D+00  E=-3.786071D-01  Symmetry=a"
              MO Center=  1.1D-01, -1.9D+00, -6.7D-15, r^2= 3.0D+00
   Bfn.  Coefficient  Atom+Function         Bfn.  Coefficient  Atom+Function  
  ----- ------------  ---------------      ----- ------------  ---------------
    93      0.288937   7 C  px              153     -0.288937  11 C  px        
   108      0.270857   8 C  px              138     -0.270857  10 C  px        
    97      0.209407   7 C  px              157     -0.209407  11 C  px        
   112      0.185188   8 C  px              142     -0.185188  10 C  px        
    94     -0.097331   7 C  py              154      0.097331  11 C  py        

 Vector   42  Occ=0.000000D+00  E=-1.519617D-01  Symmetry=a'
              MO Center=  2.3D-01, -9.8D-01, -5.3D-16, r^2= 5.7D+00
   Bfn.  Coefficient  Atom+Function         Bfn.  Coefficient  Atom+Function  
  ----- ------------  ---------------      ----- ------------  ---------------
    21      0.720550   2 N  s               127      0.347012   9 C  px        
   123      0.297169   9 C  px               67      0.295075   5 C  px        
    82      0.294071   6 C  px               78      0.285284   6 C  px        
    97     -0.233615   7 C  px              157     -0.233615  11 C  px        
    93     -0.204754   7 C  px              153     -0.204754  11 C  px        

 Vector   43  Occ=0.000000D+00  E=-1.309360D-01  Symmetry=a"
              MO Center=  7.2D-02, -1.9D+00,  7.6D-16, r^2= 3.8D+00
   Bfn.  Coefficient  Atom+Function         Bfn.  Coefficient  Atom+Function  
  ----- ------------  ---------------      ----- ------------  ---------------
   112     -0.392144   8 C  px              142      0.392144  10 C  px        
    97      0.370878   7 C  px              157     -0.370878  11 C  px        
   108     -0.309241   8 C  px              138      0.309241  10 C  px        
    93      0.280216   7 C  px              153     -0.280216  11 C  px        
    69      0.144132   5 C  pz              185      0.142338  21 H  s         

 Vector   44  Occ=0.000000D+00  E=-1.010718D-01  Symmetry=a'
              MO Center= -1.4D-01,  1.8D+00, -9.9D-15, r^2= 7.4D+00
   Bfn.  Coefficient  Atom+Function         Bfn.  Coefficient  Atom+Function  
  ----- ------------  ---------------      ----- ------------  ---------------
    21      0.709854   2 N  s                66      0.666530   5 C  s         
    36      0.650324   3 C  s                 6      0.604306   1 C  s         
    51      0.604306   4 C  s               169     -0.475417  13 H  s         
   177     -0.477333  17 H  s               183     -0.475417  20 H  s         
    38      0.469905   3 C  py              167     -0.428257  12 H  s         

 Vector   45  Occ=0.000000D+00  E=-6.320938D-02  Symmetry=a'
              MO Center= -5.5D-02,  1.5D+00, -1.2D-15, r^2= 6.9D+00
   Bfn.  Coefficient  Atom+Function         Bfn.  Coefficient  Atom+Function  
  ----- ------------  ---------------      ----- ------------  ---------------
    21      1.281171   2 N  s                 6     -0.813682   1 C  s         
    51     -0.813682   4 C  s               167      0.627758  12 H  s         
   179      0.627758  18 H  s                 7     -0.535559   1 C  px        
    52     -0.535559   4 C  px              189      0.500909  23 H  s         
   197      0.500909  27 H  s                81     -0.418925   6 C  s         

 Vector   46  Occ=0.000000D+00  E=-5.616567D-02  Symmetry=a"
              MO Center=  5.1D-01,  1.8D+00, -4.7D-14, r^2= 5.7D+00
   Bfn.  Coefficient  Atom+Function         Bfn.  Coefficient  Atom+Function  
  ----- ------------  ---------------      ----- ------------  ---------------
   185     -0.702131  21 H  s               187      0.702131  22 H  s         
   173      0.653035  15 H  s               175     -0.653035  16 H  s         
    69     -0.599472   5 C  pz                9     -0.559333   1 C  pz        
    39     -0.558466   3 C  pz               54     -0.559333   4 C  pz        
   167     -0.504210  12 H  s               179      0.504210  18 H  s         

 Vector   47  Occ=0.000000D+00  E=-5.018186D-02  Symmetry=a'
              MO Center= -5.8D-01,  1.9D+00,  5.7D-14, r^2= 6.8D+00
   Bfn.  Coefficient  Atom+Function         Bfn.  Coefficient  Atom+Function  
  ----- ------------  ---------------      ----- ------------  ---------------
    21      1.138614   2 N  s               169      0.817795  13 H  s         
   183      0.817795  20 H  s               177      0.656336  17 H  s         
    66     -0.620171   5 C  s                 6     -0.590826   1 C  s         
    51     -0.590826   4 C  s                 8     -0.422338   1 C  py        
    53     -0.422338   4 C  py               37      0.414501   3 C  px        

 Vector   48  Occ=0.000000D+00  E=-4.769694D-02  Symmetry=a'
              MO Center= -9.7D-02,  1.9D+00,  6.2D-16, r^2= 7.2D+00
   Bfn.  Coefficient  Atom+Function         Bfn.  Coefficient  Atom+Function  
  ----- ------------  ---------------      ----- ------------  ---------------
    36      1.639541   3 C  s                21     -0.909110   2 N  s         
   171     -0.755509  14 H  s               181     -0.755509  19 H  s         
   173     -0.538229  15 H  s               175     -0.538229  16 H  s         
    38     -0.492861   3 C  py                6      0.474948   1 C  s         
    51      0.474948   4 C  s               177     -0.432034  17 H  s         

 Vector   49  Occ=0.000000D+00  E=-2.272487D-02  Symmetry=a"
              MO Center= -5.1D-01,  1.3D+00, -1.7D-14, r^2= 7.1D+00
   Bfn.  Coefficient  Atom+Function         Bfn.  Coefficient  Atom+Function  
  ----- ------------  ---------------      ----- ------------  ---------------
     6      1.612807   1 C  s                51     -1.612807   4 C  s         
    24      0.818266   2 N  pz              167     -0.709740  12 H  s         
   179      0.709740  18 H  s               189     -0.514550  23 H  s         
   197      0.514550  27 H  s               171     -0.506364  14 H  s         
   181      0.506364  19 H  s               169     -0.457018  13 H  s         

 Vector   50  Occ=0.000000D+00  E=-2.141780D-02  Symmetry=a'
              MO Center=  2.1D-02, -5.1D-02,  7.3D-15, r^2= 1.1D+01
   Bfn.  Coefficient  Atom+Function         Bfn.  Coefficient  Atom+Function  
  ----- ------------  ---------------      ----- ------------  ---------------
    66      0.873760   5 C  s                36      0.705741   3 C  s         
   189      0.566542  23 H  s               197      0.566542  27 H  s         
   171      0.545414  14 H  s               181      0.545414  19 H  s         
   173     -0.528308  15 H  s               175     -0.528308  16 H  s         
   191      0.503937  24 H  s               195      0.503937  26 H  s         

 Vector   51  Occ=0.000000D+00  E=-1.741639D-02  Symmetry=a'
              MO Center= -3.9D-01,  1.9D+00,  2.6D-15, r^2= 6.5D+00
   Bfn.  Coefficient  Atom+Function         Bfn.  Coefficient  Atom+Function  
  ----- ------------  ---------------      ----- ------------  ---------------
    36      1.277954   3 C  s                23     -0.958882   2 N  py        
   177     -0.923135  17 H  s               171      0.801789  14 H  s         
   181      0.801789  19 H  s                37     -0.707702   3 C  px        
     6     -0.574869   1 C  s                51     -0.574869   4 C  s         
     8      0.485725   1 C  py               53      0.485725   4 C  py        

 Vector   52  Occ=0.000000D+00  E=-9.262178D-03  Symmetry=a'
              MO Center=  5.0D-01,  1.2D+00, -1.4D-14, r^2= 8.0D+00
   Bfn.  Coefficient  Atom+Function         Bfn.  Coefficient  Atom+Function  
  ----- ------------  ---------------      ----- ------------  ---------------
    66      1.452741   5 C  s                 6     -0.935679   1 C  s         
    51     -0.935679   4 C  s               185     -0.828927  21 H  s         
   187     -0.828927  22 H  s               167      0.731463  12 H  s         
   179      0.731463  18 H  s                22     -0.626317   2 N  px        
    68      0.557163   5 C  py               36      0.435533   3 C  s         

 Vector   53  Occ=0.000000D+00  E= 1.522425D-04  Symmetry=a"
              MO Center= -3.2D-01,  1.8D+00,  3.2D-14, r^2= 6.5D+00
   Bfn.  Coefficient  Atom+Function         Bfn.  Coefficient  Atom+Function  
  ----- ------------  ---------------      ----- ------------  ---------------
   169      0.952392  13 H  s               183     -0.952392  20 H  s         
   185     -0.737066  21 H  s               187      0.737066  22 H  s         
    69     -0.648232   5 C  pz                8     -0.625386   1 C  py        
    53      0.625386   4 C  py              171     -0.542735  14 H  s         
   181      0.542735  19 H  s               173     -0.499824  15 H  s         

 Vector   54  Occ=0.000000D+00  E= 5.103106D-03  Symmetry=a'
              MO Center= -5.9D-03,  8.0D-01,  2.0D-14, r^2= 9.9D+00
   Bfn.  Coefficient  Atom+Function         Bfn.  Coefficient  Atom+Function  
  ----- ------------  ---------------      ----- ------------  ---------------
    66      1.014937   5 C  s                22     -0.796647   2 N  px        
   167     -0.716334  12 H  s               179     -0.716334  18 H  s         
    36     -0.637006   3 C  s                 9     -0.624606   1 C  pz        
    54      0.624606   4 C  pz              173      0.502444  15 H  s         
   175      0.502444  16 H  s               191      0.442798  24 H  s         

 Vector   55  Occ=0.000000D+00  E= 9.886099D-03  Symmetry=a"
              MO Center=  2.5D-01,  2.0D+00, -3.3D-14, r^2= 6.7D+00
   Bfn.  Coefficient  Atom+Function         Bfn.  Coefficient  Atom+Function  
  ----- ------------  ---------------      ----- ------------  ---------------
   173     -1.031546  15 H  s               175      1.031546  16 H  s         
    39      1.011788   3 C  pz               24     -0.873617   2 N  pz        
   189     -0.531599  23 H  s               197      0.531599  27 H  s         
    96      0.503622   7 C  s               156     -0.503622  11 C  s         
     7     -0.482554   1 C  px               52      0.482554   4 C  px        

 Vector   56  Occ=0.000000D+00  E= 1.267188D-02  Symmetry=a'
              MO Center= -2.9D-02,  4.2D-01,  1.2D-14, r^2= 1.1D+01
   Bfn.  Coefficient  Atom+Function         Bfn.  Coefficient  Atom+Function  
  ----- ------------  ---------------      ----- ------------  ---------------
    81      0.807272   6 C  s                67      0.650223   5 C  px        
   169     -0.609827  13 H  s               183     -0.609827  20 H  s         
    23     -0.565086   2 N  py              177      0.551171  17 H  s         
[...]
   65 Bend                    11    10    26               119.82929   -0.42446
   66 Bend                    12     1    13               109.90093   -0.32427
   67 Bend                    12     1    14               110.03446   -0.93226
   68 Bend                    13     1    14               110.35693    0.82272
   69 Bend                    15     3    16               109.92830   -0.63924
   70 Bend                    15     3    17               109.92503   -0.38123
   71 Bend                    16     3    17               109.92503   -0.38123
   72 Bend                    18     4    19               110.03446   -0.93226
   73 Bend                    18     4    20               109.90093   -0.32427
   74 Bend                    19     4    20               110.35693    0.82272
   75 Bend                    21     5    22               108.44580    1.70533
   76 Torsion                  1     2     3    15         179.61255    0.32211
   77 Torsion                  1     2     3    16         -60.37883    0.16789
   78 Torsion                  1     2     3    17          59.61686    0.24500
   79 Torsion                  1     2     4    18        -178.84523    4.38885
   80 Torsion                  1     2     4    19          61.11462    5.42486
   81 Torsion                  1     2     4    20         -59.16628    4.37654
   82 Torsion                  1     2     5     6         -60.61412    0.21694
   83 Torsion                  1     2     5    21          62.47966    0.23919
   84 Torsion                  1     2     5    22         176.29211    0.19469
   85 Torsion                  2     5     6     7          91.63839    1.38737
   86 Torsion                  2     5     6    11         -91.63839   -1.38737
   87 Torsion                  3     2     1    12          59.64334   -5.09376
   88 Torsion                  3     2     1    13         -60.03561   -5.08145
   89 Torsion                  3     2     1    14         179.68348   -6.12977
   90 Torsion                  3     2     4    18         -59.64334    5.09376
   91 Torsion                  3     2     4    19        -179.68348    6.12977
   92 Torsion                  3     2     4    20          60.03561    5.08145
   93 Torsion                  3     2     5     6         180.00000    0.00000
   94 Torsion                  3     2     5    21         -56.90622    0.02225
   95 Torsion                  3     2     5    22          56.90622   -0.02225
   96 Torsion                  4     2     1    12         178.84523   -4.38885
   97 Torsion                  4     2     1    13          59.16628   -4.37654
   98 Torsion                  4     2     1    14         -61.11462   -5.42486
   99 Torsion                  4     2     3    15          60.37883   -0.16789
  100 Torsion                  4     2     3    16        -179.61255   -0.32211
  101 Torsion                  4     2     3    17         -59.61686   -0.24500
  102 Torsion                  4     2     5     6          60.61412   -0.21694
  103 Torsion                  4     2     5    21        -176.29211   -0.19469
  104 Torsion                  4     2     5    22         -62.47966   -0.23919
  105 Torsion                  5     2     1    12         -59.02667   -5.04055
  106 Torsion                  5     2     1    13        -178.70562   -5.02824
  107 Torsion                  5     2     1    14          61.01347   -6.07656
  108 Torsion                  5     2     3    15         -60.00431    0.07711
  109 Torsion                  5     2     3    16          60.00431   -0.07711
  110 Torsion                  5     2     3    17         180.00000    0.00000
  111 Torsion                  5     2     4    18          59.02667    5.04055
  112 Torsion                  5     2     4    19         -61.01347    6.07656
  113 Torsion                  5     2     4    20         178.70562    5.02824
  114 Torsion                  5     6     7     8         178.35570   -2.15282
  115 Torsion                  5     6     7    23          -0.33536   -1.58474
  116 Torsion                  5     6    11    10        -178.35570    2.15282
  117 Torsion                  5     6    11    27           0.33536    1.58474
  118 Torsion                  6     7     8     9          -0.53340   -0.20157
  119 Torsion                  6     7     8    24        -179.65927    0.06550
  120 Torsion                  6    11    10     9           0.53340    0.20157
  121 Torsion                  6    11    10    26         179.65927   -0.06550
  122 Torsion                  7     6     5    21         -27.56288    3.69267
  123 Torsion                  7     6     5    22        -149.16033   -0.91793
  124 Torsion                  7     6    11    10          -1.58717   -0.58639
  125 Torsion                  7     6    11    27         177.10389   -1.15447
  126 Torsion                  7     8     9    10          -0.54360   -0.18667
  127 Torsion                  7     8     9    25        -179.55504    0.02175
  128 Torsion                  8     7     6    11           1.58717    0.58639
  129 Torsion                  8     9    10    11           0.54360    0.18667
  130 Torsion                  8     9    10    26        -178.57916    0.46050
  131 Torsion                  9     8     7    23         178.16535   -0.78221
  132 Torsion                  9    10    11    27        -178.16535    0.78221
  133 Torsion                 10     9     8    24         178.57916   -0.46050
  134 Torsion                 11     6     5    21         149.16033    0.91793
  135 Torsion                 11     6     5    22          27.56288   -3.69267
  136 Torsion                 11     6     7    23        -177.10389    1.15447
  137 Torsion                 11    10     9    25         179.55504   -0.02175
  138 Torsion                 23     7     8    24          -0.96053   -0.51514
  139 Torsion                 24     8     9    25          -0.43228   -0.25209
  140 Torsion                 25     9    10    26           0.43228    0.25209
  141 Torsion                 26    10    11    27           0.96053    0.51514

 ==============================================================================
                                internuclear distances
 ------------------------------------------------------------------------------
       center one      |      center two      | atomic units |  angstroms
 ------------------------------------------------------------------------------
    2 N                |   1 C                |     2.84490  |     1.50546
    3 C                |   2 N                |     2.84675  |     1.50644
    4 C                |   2 N                |     2.84490  |     1.50546
    5 C                |   2 N                |     2.94422  |     1.55802
    6 C                |   5 C                |     2.83852  |     1.50208
    7 C                |   6 C                |     2.65380  |     1.40433
    8 C                |   7 C                |     2.63449  |     1.39411
    9 C                |   8 C                |     2.63941  |     1.39672
   10 C                |   9 C                |     2.63941  |     1.39672
   11 C                |   6 C                |     2.65380  |     1.40433
   11 C                |  10 C                |     2.63449  |     1.39411
   12 H                |   1 C                |     2.06207  |     1.09120
   13 H                |   1 C                |     2.06196  |     1.09114
   14 H                |   1 C                |     2.05836  |     1.08924
   15 H                |   3 C                |     2.06178  |     1.09105
   16 H                |   3 C                |     2.06178  |     1.09105
   17 H                |   3 C                |     2.06193  |     1.09113
   18 H                |   4 C                |     2.06207  |     1.09120
   19 H                |   4 C                |     2.05836  |     1.08924
   20 H                |   4 C                |     2.06196  |     1.09114
   21 H                |   5 C                |     2.06540  |     1.09296
   22 H                |   5 C                |     2.06540  |     1.09296
   23 H                |   7 C                |     2.05535  |     1.08764
   24 H                |   8 C                |     2.05147  |     1.08559
   25 H                |   9 C                |     2.05177  |     1.08575
   26 H                |  10 C                |     2.05147  |     1.08559
   27 H                |  11 C                |     2.05535  |     1.08764
 ------------------------------------------------------------------------------
                         number of included internuclear distances:         27
 ==============================================================================



 ==============================================================================
                                 internuclear angles
 ------------------------------------------------------------------------------
        center 1       |       center 2       |       center 3       |  degrees
 ------------------------------------------------------------------------------
    2 N                |   1 C                |  12 H                |   108.89
    2 N                |   1 C                |  13 H                |   108.64
    2 N                |   1 C                |  14 H                |   108.98
   12 H                |   1 C                |  13 H                |   109.90
   12 H                |   1 C                |  14 H                |   110.03
   13 H                |   1 C                |  14 H                |   110.36
    1 C                |   2 N                |   3 C                |   109.13
    1 C                |   2 N                |   4 C                |   109.18
    1 C                |   2 N                |   5 C                |   110.71
    3 C                |   2 N                |   4 C                |   109.13
    3 C                |   2 N                |   5 C                |   107.94
    4 C                |   2 N                |   5 C                |   110.71
    2 N                |   3 C                |  15 H                |   109.02
    2 N                |   3 C                |  16 H                |   109.02
    2 N                |   3 C                |  17 H                |   109.00
   15 H                |   3 C                |  16 H                |   109.93
   15 H                |   3 C                |  17 H                |   109.93
   16 H                |   3 C                |  17 H                |   109.93
    2 N                |   4 C                |  18 H                |   108.89
    2 N                |   4 C                |  19 H                |   108.98
    2 N                |   4 C                |  20 H                |   108.64
   18 H                |   4 C                |  19 H                |   110.03
   18 H                |   4 C                |  20 H                |   109.90
   19 H                |   4 C                |  20 H                |   110.36
    2 N                |   5 C                |   6 C                |   115.60
    2 N                |   5 C                |  21 H                |   104.44
    2 N                |   5 C                |  22 H                |   104.44
    6 C                |   5 C                |  21 H                |   111.66
    6 C                |   5 C                |  22 H                |   111.66
   21 H                |   5 C                |  22 H                |   108.45
    5 C                |   6 C                |   7 C                |   120.44
    5 C                |   6 C                |  11 C                |   120.44
    7 C                |   6 C                |  11 C                |   119.04
    6 C                |   7 C                |   8 C                |   120.45
    6 C                |   7 C                |  23 H                |   120.06
    8 C                |   7 C                |  23 H                |   119.47
    7 C                |   8 C                |   9 C                |   119.98
    7 C                |   8 C                |  24 H                |   119.83
    9 C                |   8 C                |  24 H                |   120.18
    8 C                |   9 C                |  10 C                |   120.06
    8 C                |   9 C                |  25 H                |   119.97
   10 C                |   9 C                |  25 H                |   119.97
    9 C                |  10 C                |  11 C                |   119.98
    9 C                |  10 C                |  26 H                |   120.18
   11 C                |  10 C                |  26 H                |   119.83
    6 C                |  11 C                |  10 C                |   120.45
    6 C                |  11 C                |  27 H                |   120.06
   10 C                |  11 C                |  27 H                |   119.47
 ------------------------------------------------------------------------------
                            number of included internuclear angles:         48
 ==============================================================================




 Task  times  cpu:     1099.6s     wall:     1099.6s


                                NWChem Input Module
                                -------------------




                     NWChem Electrostatic Potential Fit Module
                     -----------------------------------------


 Atom parameters

 Number of atoms is                                   27
 Number of basis functions is                        197


 Grid parameters

 Maximum number of grid points is                   9967
 Number of grid points is                           9966
 Grid range                                     0.200000 nm
 Grid spacing                                   0.025000 nm
 Probe radius                                   0.100000 nm
 Atom radius factor                             1.000000

 Atomic radii

    1    0.130000
    6    0.177000
    7    0.170000
 FASTESP  F
  using M.O. file = ./1.movecs


    Atom              Coordinates                           Charge

                                                  ESP   
                                                        
 
    1 C    -0.093996    0.179847   -0.122699   -0.281406
    2 N    -0.007430    0.190590    0.000000    0.407454
    3 C     0.061819    0.324373    0.000000   -0.397672
    4 C    -0.093996    0.179847    0.122699   -0.271711
    5 C     0.102137    0.079824    0.000000   -0.274442
    6 C     0.051486   -0.061586    0.000000    0.198733
    7 C     0.030754   -0.129731   -0.121028   -0.190553
    8 C    -0.012996   -0.262100   -0.120995   -0.077176
    9 C    -0.035436   -0.328167    0.000000   -0.093705
   10 C    -0.012996   -0.262100    0.120995   -0.077616
   11 C     0.030754   -0.129731    0.121028   -0.191424
   12 H    -0.031081    0.189751   -0.211305    0.139637
   13 H    -0.167845    0.260141   -0.120419    0.141823
   14 H    -0.143502    0.082824   -0.122741    0.125182
   15 H     0.123959    0.332241    0.089334    0.166355
   16 H     0.123959    0.332241   -0.089334    0.166433
   17 H    -0.013469    0.403350    0.000000    0.169539
   18 H    -0.031081    0.189751    0.211305    0.136742
   19 H    -0.143502    0.082824    0.122741    0.123988
   20 H    -0.167845    0.260141    0.120419    0.139216
   21 H     0.162395    0.101084   -0.088672    0.136682
   22 H     0.162395    0.101084    0.088672    0.136108
   23 H     0.050844   -0.080038   -0.215668    0.127028
   24 H    -0.028161   -0.313984   -0.215139    0.136823
   25 H    -0.068814   -0.431484    0.000000    0.139723
   26 H    -0.028161   -0.313984    0.215139    0.137100
   27 H     0.050844   -0.080038    0.215668    0.127137
                                            ------------
                                                1.000000

 Dipole moment                                  0.814118

 Quadrupole moment Qxx                        -22.674368
                   Qyy                         28.947704
                   Qzz                         -6.273335

 RMS deviation kJ/mol                           0.066610

 RRMS %                                         1.883069

 Task  times  cpu:       25.3s     wall:       25.3s


                                NWChem Input Module
                                -------------------


 Summary of allocated global arrays
-----------------------------------
  No active global arrays



                         GA Statistics for process    0
                         ------------------------------

       create   destroy   get      put      acc     scatter   gather  read&inc
calls: 2856     2856     5.83e+06 2.76e+05 3.84e+06    0        0     2.53e+05 
number of processes/call 0.00e+00 0.00e+00 0.00e+00 0.00e+00 0.00e+00
bytes total:             4.77e+09 7.69e+08 2.22e+09 0.00e+00 0.00e+00 2.02e+06
bytes remote:            0.00e+00 0.00e+00 0.00e+00 0.00e+00 0.00e+00 0.00e+00
Max memory consumed for GA by this process: 12108408 bytes

MA_summarize_allocated_blocks: starting scan ...
MA_summarize_allocated_blocks: scan completed: 0 heap blocks, 0 stack blocks
MA usage statistics:

	allocation statistics:
					      heap	     stack
					      ----	     -----
	current number of blocks	         0	         0
	maximum number of blocks	        25	        57
	current total bytes		         0	         0
	maximum total bytes		  12435240	  33374824
	maximum total K-bytes		     12436	     33375
	maximum total M-bytes		        13	        34


                                     CITATION
                                     --------
                Please cite the following reference when publishing
                           results obtained with NWChem:

                 M. Valiev, E.J. Bylaska, N. Govind, K. Kowalski,
              T.P. Straatsma, H.J.J. van Dam, D. Wang, J. Nieplocha,
                        E. Apra, T.L. Windus, W.A. de Jong
                 "NWChem: a comprehensive and scalable open-source
                  solution for large scale molecular simulations"
                      Comput. Phys. Commun. 181, 1477 (2010)
                           doi:10.1016/j.cpc.2010.04.018

                                      AUTHORS
                                      -------
     E. Apra, E. J. Bylaska, N. Govind, K. Kowalski, M. Valiev, W. A. de Jong,
      T. P. Straatsma, H. J. J. van Dam, D. Wang, T. L. Windus, N. P. Bauman,
       A. Panyala, J. Hammond, J. Autschbach, K. Bhaskaran-Nair, J. Brabec,
    K. Lopata, S. A. Fischer, S. Krishnamoorthy, M. Jacquelin, W. Ma, M. Klemm,
       O. Villa, Y. Chen, V. Anisimov, F. Aquino, S. Hirata, M. T. Hackler,
           Eric Hermes, L. Jensen, J. E. Moore, J. C. Becca, V. Konjkov,
            D. Mejia-Rodriguez, T. Risthaus, M. Malagoli, A. Marenich,
   A. Otero-de-la-Roza, J. Mullin, P. Nichols, R. Peverati, J. Pittner, Y. Zhao,
        P.-D. Fan, A. Fonari, M. J. Williamson, R. J. Harrison, J. R. Rehr,
      M. Dupuis, D. Silverstein, D. M. A. Smith, J. Nieplocha, V. Tipparaju,
      M. Krishnan, B. E. Van Kuiken, A. Vazquez-Mayagoitia, M. Swart, Q. Wu,
   T. Van Voorhis, A. A. Auer, M. Nooijen, L. D. Crosby, E. Brown, G. Cisneros,
     G. I. Fann, H. Fruchtl, J. Garza, K. Hirao, R. A. Kendall, J. A. Nichols,
       K. Tsemekhman, K. Wolinski, J. Anchell, D. E. Bernholdt, P. Borowski,
       T. Clark, D. Clerc, H. Dachsel, M. J. O. Deegan, K. Dyall, D. Elwood,
      E. Glendening, M. Gutowski, A. C. Hess, J. Jaffe, B. G. Johnson, J. Ju,
        R. Kobayashi, R. Kutteh, Z. Lin, R. Littlefield, X. Long, B. Meng,
      T. Nakajima, S. Niu, L. Pollack, M. Rosing, K. Glaesemann, G. Sandrone,
      M. Stave, H. Taylor, G. Thomas, J. H. van Lenthe, A. T. Wong, Z. Zhang.

 Total times  cpu:     1125.2s     wall:     1125.2s
