 argument  1 = /Users/apple/Desktop/王应泽/本科生科研/Science_Denmark/复现/NWChem_calc/242/242.nw



============================== echo of input deck ==============================
echo
title 242_ESP_Calculation
start 242

geometry
	Br	0.9176575325171155  	0.3535841861898727  	2.804464763929582
	C	-0.024327670088283123	-0.5836485841861847 	1.4074807350802738
	N	-0.014132785395541001	0.0013789319166205177	-0.004131642908398478
	C	1.351169442579906   	0.5369420059787791  	-0.43684778458397955
	Br	1.803374322913316   	2.3701563008252964  	-0.04320175373752403
	C	-1.1457990926513815 	1.0111901626770283  	-0.230101396589442
	Br	-1.558158412125757  	2.2980698078574444  	1.1412232446792767
	C	-0.3680054383913505 	-1.157882490689067  	-0.9665922523512905
	Br	0.9556257927662372  	-2.5595221581831895 	-1.1561447100164648
	H	-1.0648574815606557 	-0.7202205741057801 	1.7199001414403334
	H	0.4594613037405509  	-1.5623997946566708 	1.3865473722630284
	H	1.3996222375818572  	0.48561440198394956 	-1.5299583321668746
	H	2.134210891586203   	-0.09541884224422317	-0.007824173615328889
	H	-0.9531821644671058 	1.5460763591523845  	-1.166105784620856
	H	-2.078115452735755  	0.44568093800943426 	-0.34031349094987956
	H	-0.5246895712918718 	-0.7377096743149077 	-1.966317306897293
	H	-1.2898534549774405 	-1.6318909762108114 	-0.6120776289552367
end

charge 1

basis
	* library 6-31G*
end

dft
	xc b3lyp
	maxiter 1000
end
task dft optimize

esp
	recalculate
	range 0.2
	probe 0.1
	spacing 0.025
end
task esp
================================================================================


                                         
                                         


             Northwest Computational Chemistry Package (NWChem) 7.0.0
             --------------------------------------------------------


                    Environmental Molecular Sciences Laboratory
                       Pacific Northwest National Laboratory
                                Richland, WA 99352

                              Copyright (c) 1994-2019
                       Pacific Northwest National Laboratory
                            Battelle Memorial Institute

             NWChem is an open-source computational chemistry package
                        distributed under the terms of the
                      Educational Community License (ECL) 2.0
             A copy of the license is included with this distribution
                              in the LICENSE.TXT file

                                  ACKNOWLEDGMENT
                                  --------------

            This software and its documentation were developed at the
            EMSL at Pacific Northwest National Laboratory, a multiprogram
            national laboratory, operated for the U.S. Department of Energy
            by Battelle under Contract Number DE-AC05-76RL01830. Support
            for this work was provided by the Department of Energy Office
            of Biological and Environmental Research, Office of Basic
            Energy Sciences, and the Office of Advanced Scientific Computing.


           Job information
           ---------------

    hostname        = appledeMacBook-Pro.local
    program         = nwchem
    date            = Wed Jul 22 15:58:52 2020

    compiled        = Fri_Jul_03_06:05:09_2020
    source          = /private/tmp/nwchem-20200703-71421-tc8c0i/nwchem-7.0.0
    nwchem branch   = 7.0.0
    nwchem revision = 2c9a1c7c
    ga revision     = 5.7.1
    use scalapack   = T
    input           = /Users/apple/Desktop/王应泽/本科生科研/Science_Denmark/复现/NWChem_calc/242/242.nw
    prefix          = 242.
    data base       = ./242.db
    status          = startup
    nproc           =        1
    time left       =     -1s



           Memory information
           ------------------

    heap     =   13107196 doubles =    100.0 Mbytes
    stack    =   13107201 doubles =    100.0 Mbytes
    global   =   26214400 doubles =    200.0 Mbytes (distinct from heap & stack)
    total    =   52428797 doubles =    400.0 Mbytes
    verify   = yes
    hardfail = no 


           Directory information
           ---------------------

  0 permanent = .
  0 scratch   = .




                                NWChem Input Module
                                -------------------


                                242_ESP_Calculation
                                -------------------

 Scaling coordinates for geometry "geometry" by  1.889725989
 (inverse scale =  0.529177249)

 C1  symmetry detected

          ------
          auto-z
          ------
  no constraints, skipping    0.0000000000000000     
  no constraints, skipping    0.0000000000000000     


                             Geometry "geometry" -> ""
                             -------------------------

 Output coordinates in angstroms (scale by  1.889725989 to convert to a.u.)

  No.       Tag          Charge          X              Y              Z
 ---- ---------------- ---------- -------------- -------------- --------------
    1 Br                  35.0000    -1.64151467     0.82233157     1.46736676
    2 C                    6.0000    -1.37673260    -0.41470543     0.01239745
    3 N                    7.0000     0.01933110    -0.54433379    -0.59523176
    4 C                    6.0000     1.14109076    -0.56930423     0.44359113
    5 Br                  35.0000     1.91967993     1.09908033     1.01840672
    6 C                    6.0000     0.27019768     0.47366270    -1.71424865
    7 Br                  35.0000    -0.31344410     2.29456634    -1.48996559
    8 C                    6.0000     0.05750740    -1.90544364    -1.33100745
    9 Br                  35.0000     0.00793977    -3.49129488    -0.21963783
   10 H                    1.0000    -2.08268829    -0.16806113    -0.78744831
   11 H                    1.0000    -1.66513257    -1.37692498     0.44065310
   12 H                    1.0000     1.98603774    -1.11561725     0.01060203
   13 H                    1.0000     0.78803012    -1.09360171     1.33665089
   14 H                    1.0000     1.33960514     0.47498754    -1.95020344
   15 H                    1.0000    -0.27915723     0.13516751    -2.60013317
   16 H                    1.0000     0.98702702    -1.95680223    -1.90884902
   17 H                    1.0000    -0.80455198    -1.95798576    -2.00499660

      Atomic Mass 
      ----------- 

      Br                79.916500
      C                 12.000000
      N                 14.003070
      H                  1.007825


 Effective nuclear repulsion energy (a.u.)    2022.9022725289

            Nuclear Dipole moment (a.u.) 
            ----------------------------
        X                 Y               Z
 ---------------- ---------------- ----------------
     0.0000000000    -0.0000000000    -0.0000000000



                                Z-matrix (autoz)
                                -------- 

 Units are Angstrom for bonds and degrees for angles

      Type          Name      I     J     K     L     M      Value
      ----------- --------  ----- ----- ----- ----- ----- ----------
    1 Stretch                  1     2                       1.92803
    2 Stretch                  2     3                       1.52807
    3 Stretch                  2    10                       1.09497
    4 Stretch                  2    11                       1.09199
    5 Stretch                  3     4                       1.52909
    6 Stretch                  3     6                       1.53344
    7 Stretch                  3     8                       1.54772
    8 Stretch                  4     5                       1.92876
    9 Stretch                  4    12                       1.09539
   10 Stretch                  4    13                       1.09412
   11 Stretch                  6     7                       1.92526
   12 Stretch                  6    14                       1.09513
   13 Stretch                  6    15                       1.09597
   14 Stretch                  8     9                       1.93714
   15 Stretch                  8    16                       1.09569
   16 Stretch                  8    17                       1.09552
   17 Bend                     1     2     3               118.68375
   18 Bend                     1     2    10               108.55280
   19 Bend                     1     2    11               103.48167
   20 Bend                     2     3     4               113.67024
   21 Bend                     2     3     6               112.53976
   22 Bend                     2     3     8               106.62910
   23 Bend                     3     2    10               108.52198
   24 Bend                     3     2    11               108.81335
   25 Bend                     3     4     5               118.97857
   26 Bend                     3     4    12               107.78730
   27 Bend                     3     4    13               109.00347
   28 Bend                     3     6     7               119.55595
   29 Bend                     3     6    14               108.52910
   30 Bend                     3     6    15               107.62684
   31 Bend                     3     8     9               116.52423
   32 Bend                     3     8    16               108.23149
   33 Bend                     3     8    17               108.37533
   34 Bend                     4     3     6               112.74252
   35 Bend                     4     3     8               106.88862
   36 Bend                     5     4    12               103.75876
   37 Bend                     5     4    13               107.54831
   38 Bend                     6     3     8               103.46614
   39 Bend                     7     6    14               108.66200
   40 Bend                     7     6    15               103.55169
   41 Bend                     9     8    16               106.61252
   42 Bend                     9     8    17               107.07146
   43 Bend                    10     2    11               108.34174
   44 Bend                    12     4    13               109.42446
   45 Bend                    14     6    15               108.40257
   46 Bend                    16     8    17               109.92877
   47 Torsion                  1     2     3     4          42.31332
   48 Torsion                  1     2     3     6         -87.39933
   49 Torsion                  1     2     3     8         159.82716
   50 Torsion                  2     3     4     5         -88.74181
   51 Torsion                  2     3     4    12         153.66451
   52 Torsion                  2     3     4    13          34.98690
   53 Torsion                  2     3     6     7          42.47347
   54 Torsion                  2     3     6    14         167.78484
   55 Torsion                  2     3     6    15         -75.09582
   56 Torsion                  2     3     8     9         -68.81192
   57 Torsion                  2     3     8    16         171.13377
   58 Torsion                  2     3     8    17          51.95314
   59 Torsion                  4     3     2    10         166.77083
   60 Torsion                  4     3     2    11         -75.53553
   61 Torsion                  4     3     6     7         -87.71403
   62 Torsion                  4     3     6    14          37.59734
   63 Torsion                  4     3     6    15         154.71668
   64 Torsion                  4     3     8     9          53.09614
   65 Torsion                  4     3     8    16         -66.95817
   66 Torsion                  4     3     8    17         173.86120
   67 Torsion                  5     4     3     6          40.86883
   68 Torsion                  5     4     3     8         153.89487
   69 Torsion                  6     3     2    10          37.05818
   70 Torsion                  6     3     2    11         154.75182
   71 Torsion                  6     3     4    12         -76.72485
   72 Torsion                  6     3     4    13         164.59754
   73 Torsion                  6     3     8     9         172.31429
   74 Torsion                  6     3     8    16          52.25998
   75 Torsion                  6     3     8    17         -66.92065
   76 Torsion                  7     6     3     8         157.18070
   77 Torsion                  8     3     2    10         -75.71533
   78 Torsion                  8     3     2    11          41.97831
   79 Torsion                  8     3     4    12          36.30119
   80 Torsion                  8     3     4    13         -82.37642
   81 Torsion                  8     3     6    14         -77.50793
   82 Torsion                  8     3     6    15          39.61141


            XYZ format geometry
            -------------------
    17
 geometry
 Br                   -1.64151467     0.82233157     1.46736676
 C                    -1.37673260    -0.41470543     0.01239745
 N                     0.01933110    -0.54433379    -0.59523176
 C                     1.14109076    -0.56930423     0.44359113
 Br                    1.91967993     1.09908033     1.01840672
 C                     0.27019768     0.47366270    -1.71424865
 Br                   -0.31344410     2.29456634    -1.48996559
 C                     0.05750740    -1.90544364    -1.33100745
 Br                    0.00793977    -3.49129488    -0.21963783
 H                    -2.08268829    -0.16806113    -0.78744831
 H                    -1.66513257    -1.37692498     0.44065310
 H                     1.98603774    -1.11561725     0.01060203
 H                     0.78803012    -1.09360171     1.33665089
 H                     1.33960514     0.47498754    -1.95020344
 H                    -0.27915723     0.13516751    -2.60013317
 H                     0.98702702    -1.95680223    -1.90884902
 H                    -0.80455198    -1.95798576    -2.00499660

 ==============================================================================
                                internuclear distances
 ------------------------------------------------------------------------------
       center one      |      center two      | atomic units |  angstroms
 ------------------------------------------------------------------------------
    2 C                |   1 Br               |     3.64345  |     1.92803
    3 N                |   2 C                |     2.88764  |     1.52807
    4 C                |   3 N                |     2.88956  |     1.52909
    5 Br               |   4 C                |     3.64483  |     1.92876
    6 C                |   3 N                |     2.89779  |     1.53344
    7 Br               |   6 C                |     3.63822  |     1.92526
    8 C                |   3 N                |     2.92477  |     1.54772
    9 Br               |   8 C                |     3.66067  |     1.93714
   10 H                |   2 C                |     2.06919  |     1.09497
   11 H                |   2 C                |     2.06356  |     1.09199
   12 H                |   4 C                |     2.06998  |     1.09539
   13 H                |   4 C                |     2.06758  |     1.09412
   14 H                |   6 C                |     2.06949  |     1.09513
   15 H                |   6 C                |     2.07109  |     1.09597
   16 H                |   8 C                |     2.07056  |     1.09569
   17 H                |   8 C                |     2.07024  |     1.09552
 ------------------------------------------------------------------------------
                         number of included internuclear distances:         16
 ==============================================================================



 ==============================================================================
                                 internuclear angles
 ------------------------------------------------------------------------------
        center 1       |       center 2       |       center 3       |  degrees
 ------------------------------------------------------------------------------
    1 Br               |   2 C                |   3 N                |   118.68
    1 Br               |   2 C                |  10 H                |   108.55
    1 Br               |   2 C                |  11 H                |   103.48
    3 N                |   2 C                |  10 H                |   108.52
    3 N                |   2 C                |  11 H                |   108.81
   10 H                |   2 C                |  11 H                |   108.34
    2 C                |   3 N                |   4 C                |   113.67
    2 C                |   3 N                |   6 C                |   112.54
    2 C                |   3 N                |   8 C                |   106.63
    4 C                |   3 N                |   6 C                |   112.74
    4 C                |   3 N                |   8 C                |   106.89
    6 C                |   3 N                |   8 C                |   103.47
    3 N                |   4 C                |   5 Br               |   118.98
    3 N                |   4 C                |  12 H                |   107.79
    3 N                |   4 C                |  13 H                |   109.00
    5 Br               |   4 C                |  12 H                |   103.76
    5 Br               |   4 C                |  13 H                |   107.55
   12 H                |   4 C                |  13 H                |   109.42
    3 N                |   6 C                |   7 Br               |   119.56
    3 N                |   6 C                |  14 H                |   108.53
    3 N                |   6 C                |  15 H                |   107.63
    7 Br               |   6 C                |  14 H                |   108.66
    7 Br               |   6 C                |  15 H                |   103.55
   14 H                |   6 C                |  15 H                |   108.40
    3 N                |   8 C                |   9 Br               |   116.52
    3 N                |   8 C                |  16 H                |   108.23
    3 N                |   8 C                |  17 H                |   108.38
    9 Br               |   8 C                |  16 H                |   106.61
    9 Br               |   8 C                |  17 H                |   107.07
   16 H                |   8 C                |  17 H                |   109.93
 ------------------------------------------------------------------------------
                            number of included internuclear angles:         30
 ==============================================================================



  library name resolved from: .nwchemrc
  library file name is: </usr/local/Cellar/nwchem/7.0.0_2/share/nwchem/libraries/>
  


 Summary of "ao basis" -> "" (cartesian)
 ------------------------------------------------------------------------------
       Tag                 Description            Shells   Functions and Types
 ---------------- ------------------------------  ------  ---------------------
 *                           6-31G*                   on all atoms 




                           NWChem Geometry Optimization
                           ----------------------------




                                242_ESP_Calculation


  no constraints, skipping    0.0000000000000000     
 maximum gradient threshold         (gmax) =   0.000450
 rms gradient threshold             (grms) =   0.000300
 maximum cartesian step threshold   (xmax) =   0.001800
 rms cartesian step threshold       (xrms) =   0.001200
 fixed trust radius                (trust) =   0.300000
 maximum step size to saddle      (sadstp) =   0.100000
 energy precision                  (eprec) =   5.0D-06
 maximum number of steps          (nptopt) =   20
 initial hessian option           (inhess) =    0
 line search option               (linopt) =    1
 hessian update option            (modupd) =    1
 saddle point option              (modsad) =    0
 initial eigen-mode to follow     (moddir) =    0
 initial variable to follow       (vardir) =    0
 follow first negative mode     (firstneg) =    T
 apply conjugacy                    (opcg) =    F
 source of zmatrix                         =   autoz   


          -------------------
          Energy Minimization
          -------------------


 Names of Z-matrix variables 
    1              2              3              4              5         
    6              7              8              9             10         
   11             12             13             14             15         
   16             17             18             19             20         
   21             22             23             24             25         
   26             27             28             29             30         
   31             32             33             34             35         
   36             37             38             39             40         
   41             42             43             44             45         
   46             47             48             49             50         
   51             52             53             54             55         
   56             57             58             59             60         
   61             62             63             64             65         
   66             67             68             69             70         
   71             72             73             74             75         
   76             77             78             79             80         
   81             82         

 Variables with the same non-blank name are constrained to be equal


 Using diagonal initial Hessian 
 Scaling for Hessian diagonals: bonds = 1.00  angles = 0.25  torsions = 0.10

          --------
          Step   0
          --------


                         Geometry "geometry" -> "geometry"
                         ---------------------------------

 Output coordinates in angstroms (scale by  1.889725989 to convert to a.u.)

  No.       Tag          Charge          X              Y              Z
 ---- ---------------- ---------- -------------- -------------- --------------
    1 Br                  35.0000    -1.64151467     0.82233157     1.46736676
    2 C                    6.0000    -1.37673260    -0.41470543     0.01239745
    3 N                    7.0000     0.01933110    -0.54433379    -0.59523176
    4 C                    6.0000     1.14109076    -0.56930423     0.44359113
    5 Br                  35.0000     1.91967993     1.09908033     1.01840672
    6 C                    6.0000     0.27019768     0.47366270    -1.71424865
    7 Br                  35.0000    -0.31344410     2.29456634    -1.48996559
    8 C                    6.0000     0.05750740    -1.90544364    -1.33100745
    9 Br                  35.0000     0.00793977    -3.49129488    -0.21963783
   10 H                    1.0000    -2.08268829    -0.16806113    -0.78744831
   11 H                    1.0000    -1.66513257    -1.37692498     0.44065310
   12 H                    1.0000     1.98603774    -1.11561725     0.01060203
   13 H                    1.0000     0.78803012    -1.09360171     1.33665089
   14 H                    1.0000     1.33960514     0.47498754    -1.95020344
   15 H                    1.0000    -0.27915723     0.13516751    -2.60013317
   16 H                    1.0000     0.98702702    -1.95680223    -1.90884902
   17 H                    1.0000    -0.80455198    -1.95798576    -2.00499660

      Atomic Mass 
      ----------- 

      Br                79.916500
      C                 12.000000
      N                 14.003070
      H                  1.007825


 Effective nuclear repulsion energy (a.u.)    2022.9022725289

            Nuclear Dipole moment (a.u.) 
            ----------------------------
        X                 Y               Z
 ---------------- ---------------- ----------------
     0.0000000000    -0.0000000000    -0.0000000000


                                 NWChem DFT Module
                                 -----------------


                                242_ESP_Calculation


                      Basis "ao basis" -> "ao basis" (cartesian)
                      -----
  Br (Bromine)
  ------------
            Exponent  Coefficients 
       -------------- ---------------------------------------------------------
  1 S  1.13718200E+05  0.001718
  1 S  1.70744400E+04  0.013167
  1 S  3.88957600E+03  0.065046
  1 S  1.09709600E+03  0.226951
  1 S  3.52062400E+02  0.476836
  1 S  1.20700200E+02  0.358368

  2 S  2.47113800E+03  0.002244
  2 S  5.89383800E+02  0.029949
  2 S  1.91873800E+02  0.125601
  2 S  7.29533900E+01 -0.000983
  2 S  3.00583900E+01 -0.601314
  2 S  1.25292700E+01 -0.491398

  3 P  2.47113800E+03  0.003790
  3 P  5.89383800E+02  0.029960
  3 P  1.91873800E+02  0.131823
  3 P  7.29533900E+01  0.343271
  3 P  3.00583900E+01  0.464235
  3 P  1.25292700E+01  0.207939

  4 S  1.09641100E+02 -0.005976
  4 S  3.85894800E+01  0.055421
  4 S  1.63781800E+01  0.268120
  4 S  7.22183600E+00 -0.154361
  4 S  3.26369700E+00 -0.720631
  4 S  1.46549900E+00 -0.331644

  5 P  1.09641100E+02 -0.006907
  5 P  3.85894800E+01 -0.030414
  5 P  1.63781800E+01  0.046027
  5 P  7.22183600E+00  0.365069
  5 P  3.26369700E+00  0.494923
  5 P  1.46549900E+00  0.209039

  6 S  2.10365100E+00  0.302903
  6 S  7.54705000E-01 -0.215266
  6 S  3.00514000E-01 -0.963394

  7 P  2.10365100E+00 -0.028267
  7 P  7.54705000E-01  0.350307
  7 P  3.00514000E-01  0.718245

  8 S  1.09071000E-01  1.000000

  9 P  1.09071000E-01  1.000000

 10 D  6.22551400E+01  0.077042
 10 D  1.73128400E+01  0.370738
 10 D  5.60791500E+00  0.709763

 11 D  1.74648600E+00  1.000000

 12 D  4.36600000E-01  1.000000

  C (Carbon)
  ----------
            Exponent  Coefficients 
       -------------- ---------------------------------------------------------
  1 S  3.04752490E+03  0.001835
  1 S  4.57369510E+02  0.014037
  1 S  1.03948690E+02  0.068843
  1 S  2.92101550E+01  0.232184
  1 S  9.28666300E+00  0.467941
  1 S  3.16392700E+00  0.362312

  2 S  7.86827240E+00 -0.119332
  2 S  1.88128850E+00 -0.160854
  2 S  5.44249300E-01  1.143456

  3 P  7.86827240E+00  0.068999
  3 P  1.88128850E+00  0.316424
  3 P  5.44249300E-01  0.744308

  4 S  1.68714400E-01  1.000000

  5 P  1.68714400E-01  1.000000

  6 D  8.00000000E-01  1.000000

  N (Nitrogen)
  ------------
            Exponent  Coefficients 
       -------------- ---------------------------------------------------------
  1 S  4.17351100E+03  0.001835
  1 S  6.27457900E+02  0.013995
  1 S  1.42902100E+02  0.068587
  1 S  4.02343300E+01  0.232241
  1 S  1.28202100E+01  0.469070
  1 S  4.39043700E+00  0.360455

  2 S  1.16263580E+01 -0.114961
  2 S  2.71628000E+00 -0.169118
  2 S  7.72218000E-01  1.145852

  3 P  1.16263580E+01  0.067580
  3 P  2.71628000E+00  0.323907
  3 P  7.72218000E-01  0.740895

  4 S  2.12031300E-01  1.000000

  5 P  2.12031300E-01  1.000000

  6 D  8.00000000E-01  1.000000

  H (Hydrogen)
  ------------
            Exponent  Coefficients 
       -------------- ---------------------------------------------------------
  1 S  1.87311370E+01  0.033495
  1 S  2.82539370E+00  0.234727
  1 S  6.40121700E-01  0.813757

  2 S  1.61277800E-01  1.000000



 Summary of "ao basis" -> "ao basis" (cartesian)
 ------------------------------------------------------------------------------
       Tag                 Description            Shells   Functions and Types
 ---------------- ------------------------------  ------  ---------------------
 Br                          6-31G*                 12       35   5s4p3d
 C                           6-31G*                  6       15   3s2p1d
 N                           6-31G*                  6       15   3s2p1d
 H                           6-31G*                  2        2   2s




 Summary of "ao basis" -> "ao basis" (cartesian)
 ------------------------------------------------------------------------------
       Tag                 Description            Shells   Functions and Types
 ---------------- ------------------------------  ------  ---------------------
 Br                          6-31G*                 12       35   5s4p3d
 C                           6-31G*                  6       15   3s2p1d
 N                           6-31G*                  6       15   3s2p1d
 H                           6-31G*                  2        2   2s


  Caching 1-el integrals 

            General Information
            -------------------
          SCF calculation type: DFT
          Wavefunction type:  closed shell.
          No. of atoms     :    17
          No. of electrons :   178
           Alpha electrons :    89
            Beta electrons :    89
          Charge           :     1
          Spin multiplicity:     1
          Use of symmetry is: off; symmetry adaption is: off
          Maximum number of iterations: ***
          AO basis - number of functions:   231
                     number of shells:    94
          Convergence on energy requested:  1.00D-06
          Convergence on density requested:  1.00D-05
          Convergence on gradient requested:  5.00D-04

              XC Information
              --------------
                         B3LYP Method XC Potential
                     Hartree-Fock (Exact) Exchange  0.200          
                        Slater Exchange Functional  0.800 local    
                    Becke 1988 Exchange Functional  0.720 non-local
              Lee-Yang-Parr Correlation Functional  0.810          
                  VWN I RPA Correlation Functional  0.190 local    

             Grid Information
             ----------------
          Grid used for XC integration:  medium    
          Radial quadrature: Mura-Knowles        
          Angular quadrature: Lebedev. 
          Tag              B.-S. Rad. Rad. Pts. Rad. Cut. Ang. Pts.
          ---              ---------- --------- --------- ---------
          Br                  1.15      112          14.0       590
          C                   0.70       49          11.0       434
          N                   0.65       49           9.0       434
          H                   0.35       45          13.0       434
          Grid pruning is: on 
          Number of quadrature shells:  1053
          Spatial weights used:  Erf1

          Convergence Information
          -----------------------
          Convergence aids based upon iterative change in 
          total energy or number of iterations. 
          Levelshifting, if invoked, occurs when the 
          HOMO/LUMO gap drops below (HL_TOL):  1.00D-02
          DIIS, if invoked, will attempt to extrapolate 
          using up to (NFOCK): 10 stored Fock matrices.

                    Damping( 0%)  Levelshifting(0.5)       DIIS
                  --------------- ------------------- ---------------
          dE  on:    start            ASAP                start   
          dE off:    2 iters        *** iters           *** iters 


      Screening Tolerance Information
      -------------------------------
          Density screening/tol_rho:  1.00D-10
          AO Gaussian exp screening on grid/accAOfunc:  14
          CD Gaussian exp screening on grid/accCDfunc:  20
          XC Gaussian exp screening on grid/accXCfunc:  20
          Schwarz screening/accCoul:  1.00D-08


      Superposition of Atomic Density Guess
      -------------------------------------

 Sum of atomic energies:      -10497.26972928

 Renormalizing density from     179.00 to    178

      Non-variational initial energy
      ------------------------------

 Total energy =  -10465.221040
 1-e energy   =  -18541.807137
 2-e energy   =    6053.683825
 HOMO         =      -0.530011
 LUMO         =      -0.195377

   Time after variat. SCF:     19.5
   Time prior to 1st pass:     19.5

 Integral file          = ./242.aoints.0
 Record size in doubles =  65536        No. of integs per rec  =  43688
 Max. records in memory =      0        Max. records in file   = 184820
 No. of bits per label  =      8        No. of bits per value  =     64


 #quartets = 5.707D+06 #integrals = 1.457D+08 #direct =  0.0% #cached =100.0%


 Grid_pts file          = ./242.gridpts.0
 Record size in doubles =  12289        No. of grid_pts per rec  =   3070
 Max. records in memory =    224        Max. recs in file   =    869258


           Memory utilization after 1st SCF pass: 
           Heap Space remaining (MW):       10.22            10223292
          Stack Space remaining (MW):       13.11            13105548

   convergence    iter        energy       DeltaE   RMS-Dens  Diis-err    time
 ---------------- ----- ----------------- --------- --------- ---------  ------
 d= 0,ls=0.0,diis     1 -10506.7339036439 -1.25D+04  2.35D-02  1.34D+01    84.5
 d= 0,ls=0.0,diis     2 -10505.1074841190  1.63D+00  2.39D-02  2.12D+01   101.0
 d= 0,ls=0.0,diis     3 -10506.7854167898 -1.68D+00  8.15D-03  3.06D+00   117.1
 d= 0,ls=0.0,diis     4 -10507.1607397857 -3.75D-01  1.96D-03  3.67D-01   130.9
 d= 0,ls=0.0,diis     5 -10507.1951543364 -3.44D-02  6.84D-04  3.91D-02   148.0
  Resetting Diis
 d= 0,ls=0.0,diis     6 -10507.1991592132 -4.00D-03  1.58D-04  3.44D-03   162.7
 d= 0,ls=0.0,diis     7 -10507.1994841597 -3.25D-04  8.15D-05  6.99D-05   183.0
 d= 0,ls=0.0,diis     8 -10507.1994758994  8.26D-06  4.81D-05  1.39D-04   198.7
 d= 0,ls=0.0,diis     9 -10507.1994925132 -1.66D-05  1.08D-05  6.60D-06   217.4
 d= 0,ls=0.0,diis    10 -10507.1994933342 -8.21D-07  1.16D-06  1.02D-07   235.1


         Total DFT energy =   -10507.199493334223
      One electron energy =   -18619.621283069402
           Coulomb energy =     6485.977986054112
    Exchange-Corr. energy =     -396.458468847873
 Nuclear repulsion energy =     2022.902272528940

 Numeric. integr. density =      178.000015049474

     Total iterative time =    215.6s



                       DFT Final Molecular Orbital Analysis
                       ------------------------------------

 Vector    1  Occ=2.000000D+00  E=-4.830423D+02
              MO Center=  7.9D-03, -3.5D+00, -2.2D-01, r^2= 7.2D-04
   Bfn.  Coefficient  Atom+Function         Bfn.  Coefficient  Atom+Function  
  ----- ------------  ---------------      ----- ------------  ---------------
   181      0.994958   9 Br s               186     -0.030442   9 Br s         

 Vector    2  Occ=2.000000D+00  E=-4.830253D+02
              MO Center= -3.1D-01,  2.3D+00, -1.5D+00, r^2= 7.2D-04
   Bfn.  Coefficient  Atom+Function         Bfn.  Coefficient  Atom+Function  
  ----- ------------  ---------------      ----- ------------  ---------------
   131      0.994958   7 Br s               136     -0.030440   7 Br s         

 Vector    3  Occ=2.000000D+00  E=-4.830212D+02
              MO Center= -1.6D+00,  8.2D-01,  1.5D+00, r^2= 7.2D-04
   Bfn.  Coefficient  Atom+Function         Bfn.  Coefficient  Atom+Function  
  ----- ------------  ---------------      ----- ------------  ---------------
     1      0.994958   1 Br s                 6     -0.030440   1 Br s         

 Vector    4  Occ=2.000000D+00  E=-4.830210D+02
              MO Center=  1.9D+00,  1.1D+00,  1.0D+00, r^2= 7.2D-04
   Bfn.  Coefficient  Atom+Function         Bfn.  Coefficient  Atom+Function  
  ----- ------------  ---------------      ----- ------------  ---------------
    81      0.994958   5 Br s                86     -0.030440   5 Br s         

 Vector    5  Occ=2.000000D+00  E=-6.270055D+01
              MO Center=  7.9D-03, -3.5D+00, -2.2D-01, r^2= 1.2D-02
   Bfn.  Coefficient  Atom+Function         Bfn.  Coefficient  Atom+Function  
  ----- ------------  ---------------      ----- ------------  ---------------
   182      1.027677   9 Br s               181      0.311905   9 Br s         

 Vector    6  Occ=2.000000D+00  E=-6.268346D+01
              MO Center= -3.1D-01,  2.3D+00, -1.5D+00, r^2= 1.2D-02
   Bfn.  Coefficient  Atom+Function         Bfn.  Coefficient  Atom+Function  
  ----- ------------  ---------------      ----- ------------  ---------------
   132      1.027677   7 Br s               131      0.311905   7 Br s         

 Vector    7  Occ=2.000000D+00  E=-6.267943D+01
              MO Center= -1.6D+00,  8.2D-01,  1.5D+00, r^2= 1.2D-02
   Bfn.  Coefficient  Atom+Function         Bfn.  Coefficient  Atom+Function  
  ----- ------------  ---------------      ----- ------------  ---------------
     2      1.027677   1 Br s                 1      0.311905   1 Br s         

 Vector    8  Occ=2.000000D+00  E=-6.267922D+01
              MO Center=  1.9D+00,  1.1D+00,  1.0D+00, r^2= 1.2D-02
   Bfn.  Coefficient  Atom+Function         Bfn.  Coefficient  Atom+Function  
  ----- ------------  ---------------      ----- ------------  ---------------
    82      1.027677   5 Br s                81      0.311905   5 Br s         

 Vector    9  Occ=2.000000D+00  E=-5.652224D+01
              MO Center=  7.9D-03, -3.5D+00, -2.2D-01, r^2= 9.5D-03
   Bfn.  Coefficient  Atom+Function         Bfn.  Coefficient  Atom+Function  
  ----- ------------  ---------------      ----- ------------  ---------------
   184      0.841465   9 Br py              185     -0.532550   9 Br pz        

 Vector   10  Occ=2.000000D+00  E=-5.651780D+01
              MO Center=  7.9D-03, -3.5D+00, -2.2D-01, r^2= 9.5D-03
   Bfn.  Coefficient  Atom+Function         Bfn.  Coefficient  Atom+Function  
  ----- ------------  ---------------      ----- ------------  ---------------
   185      0.836473   9 Br pz              184      0.532178   9 Br py        
   183     -0.097121   9 Br px        

 Vector   11  Occ=2.000000D+00  E=-5.651753D+01
              MO Center=  7.9D-03, -3.5D+00, -2.2D-01, r^2= 9.5D-03
   Bfn.  Coefficient  Atom+Function         Bfn.  Coefficient  Atom+Function  
  ----- ------------  ---------------      ----- ------------  ---------------
   183      0.991121   9 Br px              185      0.094966   9 Br pz        
   184      0.031610   9 Br py        

 Vector   12  Occ=2.000000D+00  E=-5.650526D+01
              MO Center= -3.1D-01,  2.3D+00, -1.5D+00, r^2= 9.5D-03
   Bfn.  Coefficient  Atom+Function         Bfn.  Coefficient  Atom+Function  
  ----- ------------  ---------------      ----- ------------  ---------------
   134      0.951131   7 Br py              133     -0.292099   7 Br px        
   135      0.047806   7 Br pz        

 Vector   13  Occ=2.000000D+00  E=-5.650120D+01
              MO Center= -1.6D+00,  8.2D-01,  1.5D+00, r^2= 9.6D-03
   Bfn.  Coefficient  Atom+Function         Bfn.  Coefficient  Atom+Function  
  ----- ------------  ---------------      ----- ------------  ---------------
     5      0.764751   1 Br pz                4      0.608910   1 Br py        
     3     -0.191418   1 Br px        

 Vector   14  Occ=2.000000D+00  E=-5.650096D+01
              MO Center=  1.9D+00,  1.1D+00,  1.0D+00, r^2= 9.6D-03
   Bfn.  Coefficient  Atom+Function         Bfn.  Coefficient  Atom+Function  
  ----- ------------  ---------------      ----- ------------  ---------------
    84      0.824960   5 Br py               83      0.453465   5 Br px        
    85      0.325675   5 Br pz        

 Vector   15  Occ=2.000000D+00  E=-5.650066D+01
              MO Center= -3.1D-01,  2.3D+00, -1.5D+00, r^2= 9.6D-03
   Bfn.  Coefficient  Atom+Function         Bfn.  Coefficient  Atom+Function  
  ----- ------------  ---------------      ----- ------------  ---------------
   135      0.783891   7 Br pz              133     -0.575444   7 Br px        
   134     -0.216121   7 Br py        

 Vector   16  Occ=2.000000D+00  E=-5.650038D+01
              MO Center= -3.1D-01,  2.3D+00, -1.5D+00, r^2= 9.6D-03
   Bfn.  Coefficient  Atom+Function         Bfn.  Coefficient  Atom+Function  
  ----- ------------  ---------------      ----- ------------  ---------------
   133      0.758863   7 Br px              135      0.612827   7 Br pz        
   134      0.202249   7 Br py        

 Vector   17  Occ=2.000000D+00  E=-5.649666D+01
              MO Center= -1.6D+00,  8.2D-01,  1.5D+00, r^2= 9.7D-03
   Bfn.  Coefficient  Atom+Function         Bfn.  Coefficient  Atom+Function  
  ----- ------------  ---------------      ----- ------------  ---------------
     3      0.976955   1 Br px                5      0.171985   1 Br pz        
     4      0.091119   1 Br py        

 Vector   18  Occ=2.000000D+00  E=-5.649643D+01
              MO Center=  1.9D+00,  1.1D+00,  1.0D+00, r^2= 9.6D-03
   Bfn.  Coefficient  Atom+Function         Bfn.  Coefficient  Atom+Function  
  ----- ------------  ---------------      ----- ------------  ---------------
    85      0.736553   5 Br pz               84     -0.522150   5 Br py        
    83      0.420923   5 Br px        

 Vector   19  Occ=2.000000D+00  E=-5.649637D+01
              MO Center= -1.6D+00,  8.2D-01,  1.5D+00, r^2= 9.6D-03
   Bfn.  Coefficient  Atom+Function         Bfn.  Coefficient  Atom+Function  
  ----- ------------  ---------------      ----- ------------  ---------------
     4      0.783090   1 Br py                5     -0.614709   1 Br pz        
     3      0.035172   1 Br px        

 Vector   20  Occ=2.000000D+00  E=-5.649617D+01
              MO Center=  1.9D+00,  1.1D+00,  1.0D+00, r^2= 9.6D-03
   Bfn.  Coefficient  Atom+Function         Bfn.  Coefficient  Atom+Function  
  ----- ------------  ---------------      ----- ------------  ---------------
    83      0.780705   5 Br px               85     -0.586301   5 Br pz        
    84     -0.197681   5 Br py        

 Vector   21  Occ=2.000000D+00  E=-1.467982D+01
              MO Center=  1.9D-02, -5.4D-01, -6.0D-01, r^2= 2.0D-02
   Bfn.  Coefficient  Atom+Function         Bfn.  Coefficient  Atom+Function  
  ----- ------------  ---------------      ----- ------------  ---------------
    51      0.992730   3 N  s                52      0.034574   3 N  s         

 Vector   22  Occ=2.000000D+00  E=-1.048657D+01
              MO Center=  5.8D-02, -1.9D+00, -1.3D+00, r^2= 2.8D-02
   Bfn.  Coefficient  Atom+Function         Bfn.  Coefficient  Atom+Function  
  ----- ------------  ---------------      ----- ------------  ---------------
   166      0.993074   8 C  s               167      0.049389   8 C  s         

 Vector   23  Occ=2.000000D+00  E=-1.047452D+01
              MO Center=  2.7D-01,  4.7D-01, -1.7D+00, r^2= 2.8D-02
   Bfn.  Coefficient  Atom+Function         Bfn.  Coefficient  Atom+Function  
  ----- ------------  ---------------      ----- ------------  ---------------
   116      0.993051   6 C  s               117      0.049344   6 C  s         

 Vector   24  Occ=2.000000D+00  E=-1.046818D+01
              MO Center=  1.1D+00, -5.7D-01,  4.4D-01, r^2= 2.8D-02
   Bfn.  Coefficient  Atom+Function         Bfn.  Coefficient  Atom+Function  
  ----- ------------  ---------------      ----- ------------  ---------------
    66      0.992991   4 C  s                67      0.049322   4 C  s         

 Vector   25  Occ=2.000000D+00  E=-1.046772D+01
              MO Center= -1.4D+00, -4.1D-01,  1.2D-02, r^2= 2.8D-02
   Bfn.  Coefficient  Atom+Function         Bfn.  Coefficient  Atom+Function  
  ----- ------------  ---------------      ----- ------------  ---------------
    36      0.993000   2 C  s                37      0.049391   2 C  s         

 Vector   26  Occ=2.000000D+00  E=-8.887638D+00
              MO Center=  8.0D-03, -3.5D+00, -2.2D-01, r^2= 1.0D-01
   Bfn.  Coefficient  Atom+Function         Bfn.  Coefficient  Atom+Function  
  ----- ------------  ---------------      ----- ------------  ---------------
   186      1.072314   9 Br s               182     -0.479805   9 Br s         
   181     -0.124311   9 Br s         

 Vector   27  Occ=2.000000D+00  E=-8.870558D+00
              MO Center= -3.1D-01,  2.3D+00, -1.5D+00, r^2= 1.0D-01
   Bfn.  Coefficient  Atom+Function         Bfn.  Coefficient  Atom+Function  
  ----- ------------  ---------------      ----- ------------  ---------------
   136      1.072312   7 Br s               132     -0.479802   7 Br s         
   131     -0.124312   7 Br s         

 Vector   28  Occ=2.000000D+00  E=-8.866542D+00
              MO Center= -1.6D+00,  8.2D-01,  1.5D+00, r^2= 1.0D-01
   Bfn.  Coefficient  Atom+Function         Bfn.  Coefficient  Atom+Function  
  ----- ------------  ---------------      ----- ------------  ---------------
     6      1.072313   1 Br s                 2     -0.479801   1 Br s         
     1     -0.124311   1 Br s         

 Vector   29  Occ=2.000000D+00  E=-8.866342D+00
              MO Center=  1.9D+00,  1.1D+00,  1.0D+00, r^2= 1.0D-01
   Bfn.  Coefficient  Atom+Function         Bfn.  Coefficient  Atom+Function  
  ----- ------------  ---------------      ----- ------------  ---------------
    86      1.072312   5 Br s                82     -0.479801   5 Br s         
    81     -0.124311   5 Br s         

 Vector   30  Occ=2.000000D+00  E=-6.719489D+00
              MO Center=  7.9D-03, -3.5D+00, -2.2D-01, r^2= 1.1D-01
   Bfn.  Coefficient  Atom+Function         Bfn.  Coefficient  Atom+Function  
  ----- ------------  ---------------      ----- ------------  ---------------
   188      0.903859   9 Br py              189     -0.573664   9 Br pz        
   184     -0.344622   9 Br py              185      0.218722   9 Br pz        
   187      0.025875   9 Br px        

 Vector   31  Occ=2.000000D+00  E=-6.704468D+00
              MO Center=  8.0D-03, -3.5D+00, -2.2D-01, r^2= 1.1D-01
   Bfn.  Coefficient  Atom+Function         Bfn.  Coefficient  Atom+Function  
  ----- ------------  ---------------      ----- ------------  ---------------
   189      0.898797   9 Br pz              188      0.573448   9 Br py        
   185     -0.342608   9 Br pz              184     -0.218593   9 Br py        
   187     -0.107126   9 Br px              183      0.040835   9 Br px        

 Vector   32  Occ=2.000000D+00  E=-6.703510D+00
              MO Center=  8.0D-03, -3.5D+00, -2.2D-01, r^2= 1.1D-01
   Bfn.  Coefficient  Atom+Function         Bfn.  Coefficient  Atom+Function  
  ----- ------------  ---------------      ----- ------------  ---------------
   187      1.065883   9 Br px              183     -0.406294   9 Br px        
   189      0.104288   9 Br pz              185     -0.039752   9 Br pz        
   188      0.035672   9 Br py        

 Vector   33  Occ=2.000000D+00  E=-6.702793D+00
              MO Center= -3.1D-01,  2.3D+00, -1.5D+00, r^2= 1.1D-01
   Bfn.  Coefficient  Atom+Function         Bfn.  Coefficient  Atom+Function  
  ----- ------------  ---------------      ----- ------------  ---------------
   138      1.022553   7 Br py              134     -0.389879   7 Br py        
   137     -0.312915   7 Br px              133      0.119307   7 Br px        
   139      0.056027   7 Br pz        

 Vector   34  Occ=2.000000D+00  E=-6.698651D+00
              MO Center= -1.6D+00,  8.2D-01,  1.5D+00, r^2= 1.1D-01
   Bfn.  Coefficient  Atom+Function         Bfn.  Coefficient  Atom+Function  
  ----- ------------  ---------------      ----- ------------  ---------------
     9      0.820328   1 Br pz                8      0.657503   1 Br py        
     5     -0.312774   1 Br pz                4     -0.250692   1 Br py        
     7     -0.203543   1 Br px                3      0.077609   1 Br px        

 Vector   35  Occ=2.000000D+00  E=-6.698405D+00
              MO Center=  1.9D+00,  1.1D+00,  1.0D+00, r^2= 1.1D-01
   Bfn.  Coefficient  Atom+Function         Bfn.  Coefficient  Atom+Function  
  ----- ------------  ---------------      ----- ------------  ---------------
    88      0.889055   5 Br py               87      0.483511   5 Br px        
    89      0.349943   5 Br pz               84     -0.338978   5 Br py        
    83     -0.184353   5 Br px               85     -0.133427   5 Br pz        

 Vector   36  Occ=2.000000D+00  E=-6.687187D+00
              MO Center= -3.1D-01,  2.3D+00, -1.5D+00, r^2= 1.1D-01
   Bfn.  Coefficient  Atom+Function         Bfn.  Coefficient  Atom+Function  
  ----- ------------  ---------------      ----- ------------  ---------------
   139      0.847440   7 Br pz              137     -0.612595   7 Br px        
   135     -0.323035   7 Br pz              133      0.233512   7 Br px        
   138     -0.233867   7 Br py              134      0.089148   7 Br py        

 Vector   37  Occ=2.000000D+00  E=-6.686228D+00
              MO Center= -3.1D-01,  2.3D+00, -1.5D+00, r^2= 1.1D-01
   Bfn.  Coefficient  Atom+Function         Bfn.  Coefficient  Atom+Function  
  ----- ------------  ---------------      ----- ------------  ---------------
   137      0.821526   7 Br px              139      0.653312   7 Br pz        
   133     -0.313150   7 Br px              135     -0.249033   7 Br pz        
   138      0.215592   7 Br py              134     -0.082180   7 Br py        

 Vector   38  Occ=2.000000D+00  E=-6.683253D+00
              MO Center= -1.6D+00,  8.2D-01,  1.5D+00, r^2= 1.1D-01
   Bfn.  Coefficient  Atom+Function         Bfn.  Coefficient  Atom+Function  
  ----- ------------  ---------------      ----- ------------  ---------------
     7      1.051505   1 Br px                3     -0.400822   1 Br px        
     9      0.178608   1 Br pz                8      0.102727   1 Br py        
     5     -0.068081   1 Br pz                4     -0.039159   1 Br py        

 Vector   39  Occ=2.000000D+00  E=-6.683043D+00
              MO Center=  1.9D+00,  1.1D+00,  1.0D+00, r^2= 1.1D-01
   Bfn.  Coefficient  Atom+Function         Bfn.  Coefficient  Atom+Function  
  ----- ------------  ---------------      ----- ------------  ---------------
    89      0.790759   5 Br pz               88     -0.560018   5 Br py        
    87      0.457371   5 Br px               85     -0.301428   5 Br pz        
    84      0.213472   5 Br py               83     -0.174346   5 Br px        

 Vector   40  Occ=2.000000D+00  E=-6.682270D+00
              MO Center= -1.6D+00,  8.2D-01,  1.5D+00, r^2= 1.1D-01
   Bfn.  Coefficient  Atom+Function         Bfn.  Coefficient  Atom+Function  
  ----- ------------  ---------------      ----- ------------  ---------------
     8      0.839491   1 Br py                9     -0.665196   1 Br pz        
     4     -0.320000   1 Br py                5      0.253561   1 Br pz        
     7      0.030937   1 Br px        

 Vector   41  Occ=2.000000D+00  E=-6.682134D+00
              MO Center=  1.9D+00,  1.1D+00,  1.0D+00, r^2= 1.1D-01
   Bfn.  Coefficient  Atom+Function         Bfn.  Coefficient  Atom+Function  
  ----- ------------  ---------------      ----- ------------  ---------------
    87      0.839563   5 Br px               89     -0.632647   5 Br pz        
    83     -0.320028   5 Br px               85      0.241153   5 Br pz        
    88     -0.207572   5 Br py               84      0.079124   5 Br py        

 Vector   42  Occ=2.000000D+00  E=-2.812630D+00
              MO Center=  7.9D-03, -3.5D+00, -2.2D-01, r^2= 1.2D-01
   Bfn.  Coefficient  Atom+Function         Bfn.  Coefficient  Atom+Function  
  ----- ------------  ---------------      ----- ------------  ---------------
   202      1.031594   9 Br dyz             208      0.535009   9 Br dyz       
   201     -0.415751   9 Br dyy             198      0.356250   9 Br dxx       
   207     -0.215997   9 Br dyy             204      0.184352   9 Br dxx       
   214      0.071707   9 Br dyz             203      0.059455   9 Br dzz       
   199     -0.048824   9 Br dxy             209      0.030485   9 Br dzz       

 Vector   43  Occ=2.000000D+00  E=-2.808635D+00
              MO Center=  7.9D-03, -3.5D+00, -2.2D-01, r^2= 1.2D-01
   Bfn.  Coefficient  Atom+Function         Bfn.  Coefficient  Atom+Function  
  ----- ------------  ---------------      ----- ------------  ---------------
   201      0.587706   9 Br dyy             203     -0.581523   9 Br dzz       
   202      0.538399   9 Br dyz             207      0.304871   9 Br dyy       
   209     -0.301904   9 Br dzz             208      0.279412   9 Br dyz       
   200      0.096057   9 Br dxz             199     -0.093637   9 Br dxy       
   206      0.049837   9 Br dxz             205     -0.048576   9 Br dxy       

 Vector   44  Occ=2.000000D+00  E=-2.807875D+00
              MO Center=  7.9D-03, -3.5D+00, -2.2D-01, r^2= 1.2D-01
   Bfn.  Coefficient  Atom+Function         Bfn.  Coefficient  Atom+Function  
  ----- ------------  ---------------      ----- ------------  ---------------
   199      1.088075   9 Br dxy             200     -0.685910   9 Br dxz       
   205      0.564524   9 Br dxy             206     -0.355901   9 Br dxz       
   202      0.083558   9 Br dyz             211      0.071160   9 Br dxy       
   203     -0.068193   9 Br dzz             212     -0.044731   9 Br dxz       
   208      0.043342   9 Br dyz             201      0.037307   9 Br dyy       

 Vector   45  Occ=2.000000D+00  E=-2.796002D+00
              MO Center=  7.9D-03, -3.5D+00, -2.2D-01, r^2= 1.2D-01
   Bfn.  Coefficient  Atom+Function         Bfn.  Coefficient  Atom+Function  
  ----- ------------  ---------------      ----- ------------  ---------------
   200      1.059954   9 Br dxz             199      0.680501   9 Br dxy       
   206      0.548713   9 Br dxz             205      0.352251   9 Br dxy       
   198     -0.151215   9 Br dxx             202      0.122816   9 Br dyz       
   203      0.121376   9 Br dzz             204     -0.078268   9 Br dxx       
   212      0.066901   9 Br dxz             208      0.063576   9 Br dyz       

 Vector   46  Occ=2.000000D+00  E=-2.795984D+00
              MO Center=  7.9D-03, -3.5D+00, -2.2D-01, r^2= 1.2D-01
   Bfn.  Coefficient  Atom+Function         Bfn.  Coefficient  Atom+Function  
  ----- ------------  ---------------      ----- ------------  ---------------
   198      0.639073   9 Br dxx             202     -0.546565   9 Br dyz       
   203     -0.444671   9 Br dzz             204      0.330890   9 Br dxx       
   208     -0.283005   9 Br dyz             200      0.271968   9 Br dxz       
   209     -0.230130   9 Br dzz             201     -0.194374   9 Br dyy       
   206      0.140798   9 Br dxz             199      0.134723   9 Br dxy       

 Vector   47  Occ=2.000000D+00  E=-2.795870D+00
              MO Center= -3.1D-01,  2.3D+00, -1.5D+00, r^2= 1.2D-01
   Bfn.  Coefficient  Atom+Function         Bfn.  Coefficient  Atom+Function  
  ----- ------------  ---------------      ----- ------------  ---------------
   151     -0.646343   7 Br dyy             149      0.626020   7 Br dxy       
   153      0.373440   7 Br dzz             157     -0.335594   7 Br dyy       
   155      0.324688   7 Br dxy             148      0.272878   7 Br dxx       
   159      0.193342   7 Br dzz             154      0.141169   7 Br dxx       
   152     -0.134767   7 Br dyz             158     -0.069853   7 Br dyz       

 Vector   48  Occ=2.000000D+00  E=-2.791755D+00
              MO Center= -1.6D+00,  8.3D-01,  1.5D+00, r^2= 1.6D-01
   Bfn.  Coefficient  Atom+Function         Bfn.  Coefficient  Atom+Function  
  ----- ------------  ---------------      ----- ------------  ---------------
    22      1.038592   1 Br dyz              28      0.538629   1 Br dyz       
    18     -0.350549   1 Br dxx              20     -0.323128   1 Br dxz       
    23      0.287761   1 Br dzz              19     -0.257620   1 Br dxy       
    24     -0.181494   1 Br dxx              26     -0.167627   1 Br dxz       
    29      0.149594   1 Br dzz              25     -0.133638   1 Br dxy       

 Vector   49  Occ=2.000000D+00  E=-2.791706D+00
              MO Center= -3.2D-01,  2.3D+00, -1.5D+00, r^2= 1.6D-01
   Bfn.  Coefficient  Atom+Function         Bfn.  Coefficient  Atom+Function  
  ----- ------------  ---------------      ----- ------------  ---------------
   152      0.964357   7 Br dyz             149     -0.612192   7 Br dxy       
   158      0.500454   7 Br dyz             150     -0.337541   7 Br dxz       
   155     -0.317676   7 Br dxy             151     -0.274459   7 Br dyy       
   148      0.217137   7 Br dxx             156     -0.175169   7 Br dxz       
   157     -0.142332   7 Br dyy             154      0.112812   7 Br dxx       

 Vector   50  Occ=2.000000D+00  E=-2.791520D+00
              MO Center=  1.9D+00,  1.1D+00,  1.0D+00, r^2= 1.2D-01
   Bfn.  Coefficient  Atom+Function         Bfn.  Coefficient  Atom+Function  
  ----- ------------  ---------------      ----- ------------  ---------------
    99      0.836851   5 Br dxy             102      0.620986   5 Br dyz       
   105      0.434057   5 Br dxy             101      0.401540   5 Br dyy       
   108      0.322097   5 Br dyz             100      0.300386   5 Br dxz       
   103     -0.258820   5 Br dzz             107      0.208577   5 Br dyy       
   106      0.155784   5 Br dxz              98     -0.142689   5 Br dxx       

 Vector   51  Occ=2.000000D+00  E=-2.790947D+00
              MO Center= -3.1D-01,  2.3D+00, -1.5D+00, r^2= 1.2D-01
   Bfn.  Coefficient  Atom+Function         Bfn.  Coefficient  Atom+Function  
  ----- ------------  ---------------      ----- ------------  ---------------
   149      0.877961   7 Br dxy             152      0.761373   7 Br dyz       
   155      0.455559   7 Br dxy             158      0.395061   7 Br dyz       
   148     -0.289683   7 Br dxx             151      0.246985   7 Br dyy       
   150     -0.176630   7 Br dxz             154     -0.150218   7 Br dxx       
   157      0.128213   7 Br dyy             156     -0.091632   7 Br dxz       

 Vector   52  Occ=2.000000D+00  E=-2.787654D+00
              MO Center= -1.6D+00,  8.2D-01,  1.5D+00, r^2= 1.2D-01
   Bfn.  Coefficient  Atom+Function         Bfn.  Coefficient  Atom+Function  
  ----- ------------  ---------------      ----- ------------  ---------------
    20      0.935698   1 Br dxz              19      0.757374   1 Br dxy       
    26      0.485596   1 Br dxz              25      0.393029   1 Br dxy       
    18     -0.238857   1 Br dxx              22      0.219802   1 Br dyz       
    23      0.159315   1 Br dzz              24     -0.123832   1 Br dxx       
    28      0.114049   1 Br dyz              29      0.082796   1 Br dzz       

 Vector   53  Occ=2.000000D+00  E=-2.787414D+00
              MO Center=  1.9D+00,  1.1D+00,  1.0D+00, r^2= 1.2D-01
   Bfn.  Coefficient  Atom+Function         Bfn.  Coefficient  Atom+Function  
  ----- ------------  ---------------      ----- ------------  ---------------
   100      0.615468   5 Br dxz             102      0.574395   5 Br dyz       
   101     -0.558476   5 Br dyy             106      0.319407   5 Br dxz       
   103      0.308531   5 Br dzz             108      0.298096   5 Br dyz       
   107     -0.289929   5 Br dyy              98      0.249917   5 Br dxx       
    99      0.164899   5 Br dxy             109      0.159976   5 Br dzz       

 Vector   54  Occ=2.000000D+00  E=-2.786877D+00
              MO Center= -1.6D+00,  8.2D-01,  1.5D+00, r^2= 1.2D-01
   Bfn.  Coefficient  Atom+Function         Bfn.  Coefficient  Atom+Function  
  ----- ------------  ---------------      ----- ------------  ---------------
    21      0.621897   1 Br dyy              23     -0.617873   1 Br dzz       
    27      0.322760   1 Br dyy              29     -0.320514   1 Br dzz       
    22      0.276830   1 Br dyz              20      0.177676   1 Br dxz       
    19     -0.173155   1 Br dxy              28      0.143598   1 Br dyz       
    26      0.092192   1 Br dxz              25     -0.089830   1 Br dxy       

 Vector   55  Occ=2.000000D+00  E=-2.786692D+00
              MO Center=  1.9D+00,  1.1D+00,  1.0D+00, r^2= 1.2D-01
   Bfn.  Coefficient  Atom+Function         Bfn.  Coefficient  Atom+Function  
  ----- ------------  ---------------      ----- ------------  ---------------
    99      0.731754   5 Br dxy             102     -0.716235   5 Br dyz       
    98      0.456125   5 Br dxx             105      0.379708   5 Br dxy       
   108     -0.371618   5 Br dyz             103     -0.252410   5 Br dzz       
   104      0.236589   5 Br dxx             101     -0.203740   5 Br dyy       
   109     -0.131039   5 Br dzz             107     -0.105777   5 Br dyy       

 Vector   56  Occ=2.000000D+00  E=-2.778604D+00
              MO Center= -3.1D-01,  2.3D+00, -1.5D+00, r^2= 1.2D-01
   Bfn.  Coefficient  Atom+Function         Bfn.  Coefficient  Atom+Function  
  ----- ------------  ---------------      ----- ------------  ---------------
   150      0.715600   7 Br dxz             153      0.536289   7 Br dzz       
   148     -0.475611   7 Br dxx             156      0.370408   7 Br dxz       
   149     -0.326095   7 Br dxy             159      0.277534   7 Br dzz       
   154     -0.246288   7 Br dxx             155     -0.168794   7 Br dxy       
   152      0.159295   7 Br dyz             158      0.082439   7 Br dyz       

 Vector   57  Occ=2.000000D+00  E=-2.778597D+00
              MO Center= -3.1D-01,  2.3D+00, -1.5D+00, r^2= 1.2D-01
   Bfn.  Coefficient  Atom+Function         Bfn.  Coefficient  Atom+Function  
  ----- ------------  ---------------      ----- ------------  ---------------
   150      1.010383   7 Br dxz             156      0.522962   7 Br dxz       
   148      0.356669   7 Br dxx             153     -0.356291   7 Br dzz       
   152      0.345530   7 Br dyz             154      0.184683   7 Br dxx       
   159     -0.184375   7 Br dzz             158      0.178870   7 Br dyz       
   149      0.173841   7 Br dxy             155      0.089970   7 Br dxy       

 Vector   58  Occ=2.000000D+00  E=-2.774697D+00
              MO Center= -1.6D+00,  8.2D-01,  1.5D+00, r^2= 1.3D-01
   Bfn.  Coefficient  Atom+Function         Bfn.  Coefficient  Atom+Function  
  ----- ------------  ---------------      ----- ------------  ---------------
    19      0.925758   1 Br dxy              20     -0.814747   1 Br dxz       
    25      0.479212   1 Br dxy              26     -0.421776   1 Br dxz       
    21      0.211655   1 Br dyy              18     -0.152133   1 Br dxx       
    22     -0.119158   1 Br dyz              27      0.109469   1 Br dyy       
    24     -0.078832   1 Br dxx              28     -0.061662   1 Br dyz       

 Vector   59  Occ=2.000000D+00  E=-2.774689D+00
              MO Center= -1.6D+00,  8.2D-01,  1.5D+00, r^2= 1.2D-01
   Bfn.  Coefficient  Atom+Function         Bfn.  Coefficient  Atom+Function  
  ----- ------------  ---------------      ----- ------------  ---------------
    22      0.673785   1 Br dyz              18      0.596181   1 Br dxx       
    19      0.387090   1 Br dxy              28      0.348721   1 Br dyz       
    21     -0.341787   1 Br dyy              24      0.308560   1 Br dxx       
    23     -0.254417   1 Br dzz              25      0.200387   1 Br dxy       
    27     -0.176972   1 Br dyy              29     -0.131744   1 Br dzz       

 Vector   60  Occ=2.000000D+00  E=-2.774540D+00
              MO Center=  1.9D+00,  1.1D+00,  1.0D+00, r^2= 1.2D-01
   Bfn.  Coefficient  Atom+Function         Bfn.  Coefficient  Atom+Function  
  ----- ------------  ---------------      ----- ------------  ---------------
    99      0.578661   5 Br dxy             103      0.572671   5 Br dzz       
    98     -0.502422   5 Br dxx             102     -0.411036   5 Br dyz       
   105      0.299547   5 Br dxy             109      0.296507   5 Br dzz       
   104     -0.260022   5 Br dxx             108     -0.212790   5 Br dyz       
   101     -0.070239   5 Br dyy             100     -0.065062   5 Br dxz       

 Vector   61  Occ=2.000000D+00  E=-2.774534D+00
              MO Center=  1.9D+00,  1.1D+00,  1.0D+00, r^2= 1.3D-01
   Bfn.  Coefficient  Atom+Function         Bfn.  Coefficient  Atom+Function  
  ----- ------------  ---------------      ----- ------------  ---------------
   100      1.096948   5 Br dxz             106      0.567809   5 Br dxz       
   102     -0.527302   5 Br dyz              99     -0.278158   5 Br dxy       
   108     -0.272962   5 Br dyz             101      0.196662   5 Br dyy       
   105     -0.144018   5 Br dxy              98     -0.124996   5 Br dxx       
   107      0.101704   5 Br dyy             103     -0.071690   5 Br dzz       

 Vector   62  Occ=2.000000D+00  E=-1.217534D+00
              MO Center=  2.2D-02, -5.9D-01, -6.3D-01, r^2= 1.2D+00
   Bfn.  Coefficient  Atom+Function         Bfn.  Coefficient  Atom+Function  
  ----- ------------  ---------------      ----- ------------  ---------------
    56      0.426493   3 N  s                52      0.376746   3 N  s         
    51     -0.182181   3 N  s               167      0.116907   8 C  s         
   117      0.111387   6 C  s                37      0.108309   2 C  s         
    67      0.108206   4 C  s                38      0.063466   2 C  px        
   169      0.062956   8 C  py              166     -0.061446   8 C  s         

 Vector   63  Occ=2.000000D+00  E=-1.008214D+00
              MO Center=  7.0D-03, -1.6D+00, -8.1D-01, r^2= 4.8D+00
   Bfn.  Coefficient  Atom+Function         Bfn.  Coefficient  Atom+Function  
  ----- ------------  ---------------      ----- ------------  ---------------
   190      0.532436   9 Br s               186     -0.268268   9 Br s         
   140     -0.266334   7 Br s               167     -0.225153   8 C  s         
   171     -0.212116   8 C  s               136      0.135098   7 Br s         
   117      0.130365   6 C  s                10     -0.120907   1 Br s         
    54      0.119412   3 N  py              166      0.115085   8 C  s         

 Vector   64  Occ=2.000000D+00  E=-9.955260D-01
              MO Center= -1.3D-01,  5.0D-01, -5.5D-01, r^2= 4.4D+00
   Bfn.  Coefficient  Atom+Function         Bfn.  Coefficient  Atom+Function  
  ----- ------------  ---------------      ----- ------------  ---------------
   140      0.398147   7 Br s                10     -0.312488   1 Br s         
    90     -0.228811   5 Br s               117     -0.212955   6 C  s         
   136     -0.200852   7 Br s               121     -0.191251   6 C  s         
     6      0.157930   1 Br s                37      0.145123   2 C  s         
    55      0.137502   3 N  pz               67      0.129764   4 C  s         

 Vector   65  Occ=2.000000D+00  E=-9.938772D-01
              MO Center=  1.8D-01,  8.6D-02,  5.4D-01, r^2= 3.8D+00
   Bfn.  Coefficient  Atom+Function         Bfn.  Coefficient  Atom+Function  
  ----- ------------  ---------------      ----- ------------  ---------------
    90      0.429773   5 Br s                10     -0.361128   1 Br s         
    86     -0.217221   5 Br s                67     -0.215524   4 C  s         
    37      0.201826   2 C  s                71     -0.189473   4 C  s         
     6      0.182607   1 Br s                41      0.178215   2 C  s         
    53     -0.143439   3 N  px               66      0.109309   4 C  s         

 Vector   66  Occ=2.000000D+00  E=-9.669039D-01
              MO Center= -3.5D-02, -1.0D-01, -1.8D-01, r^2= 7.2D+00
   Bfn.  Coefficient  Atom+Function         Bfn.  Coefficient  Atom+Function  
  ----- ------------  ---------------      ----- ------------  ---------------
   190      0.420640   9 Br s               140      0.415595   7 Br s         
    10      0.351579   1 Br s                90      0.340318   5 Br s         
   186     -0.208787   9 Br s               136     -0.207454   7 Br s         
    56      0.197223   3 N  s                 6     -0.175971   1 Br s         
    86     -0.170433   5 Br s                52      0.135164   3 N  s         

 Vector   67  Occ=2.000000D+00  E=-8.894661D-01
              MO Center=  1.5D-01, -1.2D-01, -4.6D-01, r^2= 5.6D+00
   Bfn.  Coefficient  Atom+Function         Bfn.  Coefficient  Atom+Function  
  ----- ------------  ---------------      ----- ------------  ---------------
    90      0.352509   5 Br s               140     -0.350341   7 Br s         
    10      0.306838   1 Br s               190     -0.234488   9 Br s         
    55      0.219702   3 N  pz               86     -0.171085   5 Br s         
   136      0.169646   7 Br s               171     -0.159892   8 C  s         
   167     -0.152442   8 C  s                 6     -0.149794   1 Br s         

 Vector   68  Occ=2.000000D+00  E=-8.821827D-01
              MO Center= -1.2D-01,  9.8D-02,  4.0D-01, r^2= 4.5D+00
   Bfn.  Coefficient  Atom+Function         Bfn.  Coefficient  Atom+Function  
  ----- ------------  ---------------      ----- ------------  ---------------
    10      0.475376   1 Br s                90     -0.441925   5 Br s         
    53     -0.235132   3 N  px                6     -0.230208   1 Br s         
    86      0.214661   5 Br s                37      0.177320   2 C  s         
    41      0.150905   2 C  s                67     -0.136814   4 C  s         
    57     -0.125919   3 N  px               14     -0.116775   1 Br s         

 Vector   69  Occ=2.000000D+00  E=-8.653959D-01
              MO Center=  2.5D-02, -8.9D-01, -1.0D+00, r^2= 5.8D+00
   Bfn.  Coefficient  Atom+Function         Bfn.  Coefficient  Atom+Function  
  ----- ------------  ---------------      ----- ------------  ---------------
   190     -0.469884   9 Br s               140      0.427301   7 Br s         
   171     -0.229729   8 C  s               186      0.226398   9 Br s         
   167     -0.220198   8 C  s                54      0.217422   3 N  py        
   136     -0.206345   7 Br s               117      0.169429   6 C  s         
   121      0.161705   6 C  s               194      0.125686   9 Br s         

 Vector   70  Occ=2.000000D+00  E=-7.939363D-01
              MO Center=  2.4D-02, -1.6D-01, -3.0D-01, r^2= 5.2D+00
   Bfn.  Coefficient  Atom+Function         Bfn.  Coefficient  Atom+Function  
  ----- ------------  ---------------      ----- ------------  ---------------
    56      0.301919   3 N  s                90     -0.240759   5 Br s         
    10     -0.232899   1 Br s                71     -0.217917   4 C  s         
    41     -0.213874   2 C  s               140     -0.196599   7 Br s         
   121     -0.184817   6 C  s                52      0.174806   3 N  s         
    67     -0.171562   4 C  s                37     -0.163450   2 C  s         

 Vector   71  Occ=2.000000D+00  E=-7.175258D-01
              MO Center= -1.1D-02, -7.7D-01, -8.0D-01, r^2= 3.5D+00
   Bfn.  Coefficient  Atom+Function         Bfn.  Coefficient  Atom+Function  
  ----- ------------  ---------------      ----- ------------  ---------------
    54      0.328126   3 N  py              170     -0.218814   8 C  pz        
    58      0.203266   3 N  py               90      0.163354   5 Br s         
    39      0.158329   2 C  py              169     -0.155311   8 C  py        
   120      0.153264   6 C  pz              230      0.122222  17 H  s         
    71      0.120490   4 C  s               171      0.119830   8 C  s         

 Vector   72  Occ=2.000000D+00  E=-7.165764D-01
              MO Center= -1.4D-01, -4.9D-01, -5.0D-01, r^2= 4.0D+00
   Bfn.  Coefficient  Atom+Function         Bfn.  Coefficient  Atom+Function  
  ----- ------------  ---------------      ----- ------------  ---------------
    53      0.248581   3 N  px               70     -0.201233   4 C  pz        
    41      0.186070   2 C  s                38     -0.184825   2 C  px        
   168      0.178178   8 C  px               10      0.167008   1 Br s         
    57      0.159330   3 N  px              120      0.157453   6 C  pz        
   118      0.131804   6 C  px              222     -0.126120  13 H  s         

 Vector   73  Occ=2.000000D+00  E=-7.056006D-01
              MO Center=  2.3D-01, -5.7D-01, -6.1D-01, r^2= 3.9D+00
   Bfn.  Coefficient  Atom+Function         Bfn.  Coefficient  Atom+Function  
  ----- ------------  ---------------      ----- ------------  ---------------
    55      0.319753   3 N  pz               68     -0.222781   4 C  px        
    59      0.199237   3 N  pz              169     -0.152378   8 C  py        
    38      0.140140   2 C  px              220     -0.135024  12 H  s         
   190      0.132625   9 Br s               118      0.128941   6 C  px        
    40      0.124186   2 C  pz              140      0.124600   7 Br s         

 Vector   74  Occ=2.000000D+00  E=-6.548320D-01
              MO Center=  6.5D-02, -1.3D+00, -1.3D+00, r^2= 3.3D+00
   Bfn.  Coefficient  Atom+Function         Bfn.  Coefficient  Atom+Function  
  ----- ------------  ---------------      ----- ------------  ---------------
   168      0.388553   8 C  px              172      0.210368   8 C  px        
   230     -0.186251  17 H  s               228      0.184488  16 H  s         
   118     -0.159883   6 C  px              191      0.131190   9 Br px        
   120     -0.115445   6 C  pz               39      0.107017   2 C  py        
   231     -0.103774  17 H  s               229      0.101642  16 H  s         

 Vector   75  Occ=2.000000D+00  E=-6.295298D-01
              MO Center=  7.2D-02, -5.4D-01, -2.0D-01, r^2= 4.5D+00
   Bfn.  Coefficient  Atom+Function         Bfn.  Coefficient  Atom+Function  
  ----- ------------  ---------------      ----- ------------  ---------------
    40      0.201001   2 C  pz               68     -0.187013   4 C  px        
    70      0.179944   4 C  pz               53      0.168288   3 N  px        
   119     -0.165462   6 C  py               55     -0.140521   3 N  pz        
   220     -0.139635  12 H  s               218      0.134751  11 H  s         
    39     -0.129550   2 C  py              192     -0.129359   9 Br py        

 Vector   76  Occ=2.000000D+00  E=-6.216516D-01
              MO Center=  1.2D-01, -2.0D-01, -9.9D-01, r^2= 3.6D+00
   Bfn.  Coefficient  Atom+Function         Bfn.  Coefficient  Atom+Function  
  ----- ------------  ---------------      ----- ------------  ---------------
   118     -0.252648   6 C  px               53      0.236418   3 N  px        
    70     -0.219700   4 C  pz              120     -0.174098   6 C  pz        
   226      0.169222  15 H  s                55      0.162916   3 N  pz        
    38     -0.149730   2 C  px              122     -0.141212   6 C  px        
    57      0.134313   3 N  px              168     -0.132966   8 C  px        

 Vector   77  Occ=2.000000D+00  E=-6.147287D-01
              MO Center= -1.9D-01, -4.4D-01, -1.3D-01, r^2= 4.0D+00
   Bfn.  Coefficient  Atom+Function         Bfn.  Coefficient  Atom+Function  
  ----- ------------  ---------------      ----- ------------  ---------------
    68      0.228918   4 C  px               40      0.219639   2 C  pz        
   216     -0.184560  10 H  s                39     -0.183302   2 C  py        
    70     -0.183877   4 C  pz              118     -0.179827   6 C  px        
    38      0.167853   2 C  px              220      0.147902  12 H  s         
   222     -0.137994  13 H  s               218      0.127860  11 H  s         

 Vector   78  Occ=2.000000D+00  E=-5.953478D-01
              MO Center=  1.0D-02, -1.1D+00, -8.8D-01, r^2= 6.1D+00
   Bfn.  Coefficient  Atom+Function         Bfn.  Coefficient  Atom+Function  
  ----- ------------  ---------------      ----- ------------  ---------------
   192      0.355473   9 Br py              142     -0.248938   7 Br py        
   170      0.229964   8 C  pz              120      0.198234   6 C  pz        
   190      0.173564   9 Br s               188     -0.164136   9 Br py        
   193     -0.157766   9 Br pz              118     -0.150695   6 C  px        
   169     -0.140384   8 C  py              174      0.138146   8 C  pz        

 Vector   79  Occ=2.000000D+00  E=-5.678895D-01
              MO Center= -1.5D-01,  2.0D-01,  6.7D-01, r^2= 5.2D+00
   Bfn.  Coefficient  Atom+Function         Bfn.  Coefficient  Atom+Function  
  ----- ------------  ---------------      ----- ------------  ---------------
    13      0.322529   1 Br pz               92     -0.268581   5 Br py        
    69      0.262247   4 C  py               12      0.237379   1 Br py        
    39     -0.223494   2 C  py               91     -0.192741   5 Br px        
    40     -0.191401   2 C  pz               10     -0.154349   1 Br s         
    73      0.151291   4 C  py                9     -0.148425   1 Br pz        

 Vector   80  Occ=2.000000D+00  E=-5.638491D-01
              MO Center=  3.8D-02, -2.2D-01, -7.3D-01, r^2= 7.6D+00
   Bfn.  Coefficient  Atom+Function         Bfn.  Coefficient  Atom+Function  
  ----- ------------  ---------------      ----- ------------  ---------------
   142      0.353644   7 Br py              192      0.295118   9 Br py        
   119     -0.234068   6 C  py              170      0.201114   8 C  pz        
   193     -0.190555   9 Br pz               92     -0.186955   5 Br py        
   138     -0.161870   7 Br py               69      0.146813   4 C  py        
    13     -0.143900   1 Br pz              123     -0.135688   6 C  py        

 Vector   81  Occ=2.000000D+00  E=-5.573022D-01
              MO Center=  1.4D-01,  3.9D-01,  9.7D-02, r^2= 6.1D+00
   Bfn.  Coefficient  Atom+Function         Bfn.  Coefficient  Atom+Function  
  ----- ------------  ---------------      ----- ------------  ---------------
    92      0.283533   5 Br py              142      0.270233   7 Br py        
    13      0.248063   1 Br pz               69     -0.220343   4 C  py        
    54      0.183013   3 N  py               12      0.176108   1 Br py        
    91      0.176495   5 Br px              119     -0.176661   6 C  py        
   169     -0.170816   8 C  py               39     -0.154559   2 C  py        

 Vector   82  Occ=2.000000D+00  E=-4.812295D-01
              MO Center= -2.3D-02, -2.1D-02,  1.6D-02, r^2= 8.9D+00
   Bfn.  Coefficient  Atom+Function         Bfn.  Coefficient  Atom+Function  
  ----- ------------  ---------------      ----- ------------  ---------------
   143      0.378187   7 Br pz              193      0.355940   9 Br pz        
    56     -0.307926   3 N  s                11      0.263637   1 Br px        
    91     -0.242090   5 Br px              192      0.207948   9 Br py        
    12      0.206759   1 Br py               92      0.181846   5 Br py        
   139     -0.170167   7 Br pz              189     -0.159325   9 Br pz        

 Vector   83  Occ=2.000000D+00  E=-4.659277D-01
              MO Center=  1.8D-02, -1.8D+00, -4.2D-02, r^2= 7.9D+00
   Bfn.  Coefficient  Atom+Function         Bfn.  Coefficient  Atom+Function  
  ----- ------------  ---------------      ----- ------------  ---------------
   193      0.542819   9 Br pz              192      0.339440   9 Br py        
    11     -0.242952   1 Br px              189     -0.241989   9 Br pz        
   143     -0.233737   7 Br pz              197      0.218993   9 Br pz        
    91      0.214760   5 Br px              188     -0.150975   9 Br py        
   196      0.149991   9 Br py               92     -0.145874   5 Br py        

 Vector   84  Occ=2.000000D+00  E=-4.630005D-01
              MO Center=  6.3D-02, -1.9D+00, -2.1D-01, r^2= 7.8D+00
   Bfn.  Coefficient  Atom+Function         Bfn.  Coefficient  Atom+Function  
  ----- ------------  ---------------      ----- ------------  ---------------
   191      0.650927   9 Br px              187     -0.289967   9 Br px        
   195      0.275482   9 Br px              141      0.251545   7 Br px        
    93     -0.198718   5 Br pz               12     -0.160049   1 Br py        
[...]

  No.       Tag          Charge          X              Y              Z
 ---- ---------------- ---------- -------------- -------------- --------------
    1 Br                  35.0000    -1.58376609     0.68961727     1.58885007
    2 C                    6.0000    -1.39448497    -0.41493116     0.01470770
    3 N                    7.0000     0.01967794    -0.54391015    -0.59344844
    4 C                    6.0000     1.15447487    -0.57422443     0.45688751
    5 Br                  35.0000     2.00175600     1.11081623     0.88960812
    6 C                    6.0000     0.28571532     0.47155505    -1.73488698
    7 Br                  35.0000    -0.47646967     2.23879907    -1.55569789
    8 C                    6.0000     0.04688899    -1.89878452    -1.33514862
    9 Br                  35.0000     0.01419293    -3.46801345    -0.19320886
   10 H                    1.0000    -2.03821411    -0.01962057    -0.76801050
   11 H                    1.0000    -1.69334807    -1.41880763     0.30414447
   12 H                    1.0000     1.93029790    -1.21995335     0.05366061
   13 H                    1.0000     0.73814063    -0.99546045     1.36686459
   14 H                    1.0000     1.36531266     0.56482931    -1.82787348
   15 H                    1.0000    -0.14714670     0.04336998    -2.63655880
   16 H                    1.0000     0.96218111    -1.92686257    -1.92460710
   17 H                    1.0000    -0.83198351    -1.93269766    -1.97733613

      Atomic Mass 
      ----------- 

      Br                79.916500
      C                 12.000000
      N                 14.003070
      H                  1.007825


 Effective nuclear repulsion energy (a.u.)    2015.2107812247

            Nuclear Dipole moment (a.u.) 
            ----------------------------
        X                 Y               Z
 ---------------- ---------------- ----------------
    -1.0799564341    -9.8609961362    -3.0617293143


                Final and change from initial internal coordinates
                --------------------------------------------------



                                Z-matrix (autoz)
                                -------- 

 Units are Angstrom for bonds and degrees for angles

      Type          Name      I     J     K     L     M      Value       Change
      ----------- --------  ----- ----- ----- ----- ----- ---------- ----------
    1 Stretch                  1     2                       1.93230    0.00427
    2 Stretch                  2     3                       1.54478    0.01671
    3 Stretch                  2    10                       1.08780   -0.00717
    4 Stretch                  2    11                       1.08667   -0.00532
    5 Stretch                  3     4                       1.54657    0.01748
    6 Stretch                  3     6                       1.55075    0.01731
    7 Stretch                  3     8                       1.54484   -0.00288
    8 Stretch                  4     5                       1.93507    0.00631
    9 Stretch                  4    12                       1.08695   -0.00844
   10 Stretch                  4    13                       1.08574   -0.00838
   11 Stretch                  6     7                       1.93292    0.00766
   12 Stretch                  6    14                       1.08760   -0.00753
   13 Stretch                  6    15                       1.08799   -0.00798
   14 Stretch                  8     9                       1.94102    0.00388
   15 Stretch                  8    16                       1.08904   -0.00665
   16 Stretch                  8    17                       1.08902   -0.00650
   17 Bend                     1     2     3               117.26553   -1.41822
   18 Bend                     1     2    10               108.69170    0.13889
   19 Bend                     1     2    11               106.50788    3.02621
   20 Bend                     2     3     4               113.95245    0.28222
   21 Bend                     2     3     6               113.08827    0.54851
   22 Bend                     2     3     8               106.16259   -0.46651
   23 Bend                     3     2    10               106.78639   -1.73559
   24 Bend                     3     2    11               106.23022   -2.58313
   25 Bend                     3     4     5               117.13424   -1.84433
   26 Bend                     3     4    12               106.46480   -1.32251
   27 Bend                     3     4    13               107.18393   -1.81953
   28 Bend                     3     6     7               117.56876   -1.98719
   29 Bend                     3     6    14               106.82086   -1.70824
   30 Bend                     3     6    15               106.50167   -1.12517
   31 Bend                     3     8     9               115.23185   -1.29238
   32 Bend                     3     8    16               107.29454   -0.93695
   33 Bend                     3     8    17               107.23040   -1.14493
   34 Bend                     4     3     6               112.75805    0.01553
   35 Bend                     4     3     8               107.21439    0.32577
   36 Bend                     5     4    12               106.72309    2.96433
   37 Bend                     5     4    13               108.56139    1.01308
   38 Bend                     6     3     8               102.58492   -0.88122
   39 Bend                     7     6    14               108.71924    0.05724
   40 Bend                     7     6    15               106.24647    2.69478
   41 Bend                     9     8    16               108.16466    1.55214
   42 Bend                     9     8    17               107.94813    0.87667
   43 Bend                    10     2    11               111.38381    3.04208
   44 Bend                    12     4    13               110.74013    1.31567
   45 Bend                    14     6    15               110.96655    2.56398
   46 Bend                    16     8    17               110.99529    1.06652
   47 Torsion                  1     2     3     4          36.12431   -6.18901
   48 Torsion                  1     2     3     6         -94.38151   -6.98218
   49 Torsion                  1     2     3     8         153.89341   -5.93374
   50 Torsion                  2     3     4     5         -93.87301   -5.13120
   51 Torsion                  2     3     4    12         146.87714   -6.78737
   52 Torsion                  2     3     4    13          28.32736   -6.65954
   53 Torsion                  2     3     6     7          36.52436   -5.94911
   54 Torsion                  2     3     6    14         158.94001   -8.84483
   55 Torsion                  2     3     6    15         -82.41150   -7.31568
   56 Torsion                  2     3     8     9         -69.92745   -1.11553
   57 Torsion                  2     3     8    16         169.56344   -1.57034
   58 Torsion                  2     3     8    17          50.25883   -1.69431
   59 Torsion                  4     3     2    10         158.26825   -8.50258
   60 Torsion                  4     3     2    11         -82.75448   -7.21895
   61 Torsion                  4     3     6     7         -94.57889   -6.86486
   62 Torsion                  4     3     6    14          27.83676   -9.76058
   63 Torsion                  4     3     6    15         146.48525   -8.23143
   64 Torsion                  4     3     8     9          52.23361   -0.86253
   65 Torsion                  4     3     8    16         -68.27551   -1.31733
   66 Torsion                  4     3     8    17         172.41989   -1.44131
   67 Torsion                  5     4     3     6          36.79580   -4.07302
   68 Torsion                  5     4     3     8         148.96450   -4.93036
   69 Torsion                  6     3     2    10          27.76244   -9.29575
   70 Torsion                  6     3     2    11         146.73970   -8.01212
   71 Torsion                  6     3     4    12         -82.45404   -5.72919
   72 Torsion                  6     3     4    13         158.99618   -5.60136
   73 Torsion                  6     3     8     9         171.18848   -1.12581
   74 Torsion                  6     3     8    16          50.67936   -1.58062
   75 Torsion                  6     3     8    17         -68.62524   -1.70459
   76 Torsion                  7     6     3     8         150.42937   -6.75134
   77 Torsion                  8     3     2    10         -83.96264   -8.24731
   78 Torsion                  8     3     2    11          35.01463   -6.96368
   79 Torsion                  8     3     4    12          29.71466   -6.58653
   80 Torsion                  8     3     4    13         -88.83512   -6.45870
   81 Torsion                  8     3     6    14         -87.15498   -9.64705
   82 Torsion                  8     3     6    15          31.49351   -8.11791

 ==============================================================================
                                internuclear distances
 ------------------------------------------------------------------------------
       center one      |      center two      | atomic units |  angstroms
 ------------------------------------------------------------------------------
    2 C                |   1 Br               |     3.65152  |     1.93230
    3 N                |   2 C                |     2.91921  |     1.54478
    4 C                |   3 N                |     2.92260  |     1.54657
    5 Br               |   4 C                |     3.65675  |     1.93507
    6 C                |   3 N                |     2.93049  |     1.55075
    7 Br               |   6 C                |     3.65269  |     1.93292
    8 C                |   3 N                |     2.91933  |     1.54484
    9 Br               |   8 C                |     3.66800  |     1.94102
   10 H                |   2 C                |     2.05564  |     1.08780
   11 H                |   2 C                |     2.05352  |     1.08667
   12 H                |   4 C                |     2.05404  |     1.08695
   13 H                |   4 C                |     2.05175  |     1.08574
   14 H                |   6 C                |     2.05527  |     1.08760
   15 H                |   6 C                |     2.05600  |     1.08799
   16 H                |   8 C                |     2.05799  |     1.08904
   17 H                |   8 C                |     2.05796  |     1.08902
 ------------------------------------------------------------------------------
                         number of included internuclear distances:         16
 ==============================================================================



 ==============================================================================
                                 internuclear angles
 ------------------------------------------------------------------------------
        center 1       |       center 2       |       center 3       |  degrees
 ------------------------------------------------------------------------------
    1 Br               |   2 C                |   3 N                |   117.27
    1 Br               |   2 C                |  10 H                |   108.69
    1 Br               |   2 C                |  11 H                |   106.51
    3 N                |   2 C                |  10 H                |   106.79
    3 N                |   2 C                |  11 H                |   106.23
   10 H                |   2 C                |  11 H                |   111.38
    2 C                |   3 N                |   4 C                |   113.95
    2 C                |   3 N                |   6 C                |   113.09
    2 C                |   3 N                |   8 C                |   106.16
    4 C                |   3 N                |   6 C                |   112.76
    4 C                |   3 N                |   8 C                |   107.21
    6 C                |   3 N                |   8 C                |   102.58
    3 N                |   4 C                |   5 Br               |   117.13
    3 N                |   4 C                |  12 H                |   106.46
    3 N                |   4 C                |  13 H                |   107.18
    5 Br               |   4 C                |  12 H                |   106.72
    5 Br               |   4 C                |  13 H                |   108.56
   12 H                |   4 C                |  13 H                |   110.74
    3 N                |   6 C                |   7 Br               |   117.57
    3 N                |   6 C                |  14 H                |   106.82
    3 N                |   6 C                |  15 H                |   106.50
    7 Br               |   6 C                |  14 H                |   108.72
    7 Br               |   6 C                |  15 H                |   106.25
   14 H                |   6 C                |  15 H                |   110.97
    3 N                |   8 C                |   9 Br               |   115.23
    3 N                |   8 C                |  16 H                |   107.29
    3 N                |   8 C                |  17 H                |   107.23
    9 Br               |   8 C                |  16 H                |   108.16
    9 Br               |   8 C                |  17 H                |   107.95
   16 H                |   8 C                |  17 H                |   111.00
 ------------------------------------------------------------------------------
                            number of included internuclear angles:         30
 ==============================================================================




 Task  times  cpu:     4274.1s     wall:     4274.1s


                                NWChem Input Module
                                -------------------




                     NWChem Electrostatic Potential Fit Module
                     -----------------------------------------


 Atom parameters

 Number of atoms is                                   17
 Number of basis functions is                        231


 Grid parameters

 Maximum number of grid points is                   3994
 Number of grid points is                           3993
 Grid range                                     0.200000 nm
 Grid spacing                                   0.025000 nm
 Probe radius                                   0.100000 nm
 Atom radius factor                             1.000000

 Atomic radii

    1    0.130000
    6    0.177000
    7    0.170000
   35    0.214000
 FASTESP  F
  using M.O. file = ./242.movecs


    Atom              Coordinates                           Charge

                                                  ESP   
                                                        
 
    1 Br   -0.158377    0.068962    0.158885    0.030183
    2 C    -0.139448   -0.041493    0.001471   -0.069116
    3 N     0.001968   -0.054391   -0.059345    0.189423
    4 C     0.115447   -0.057422    0.045689   -0.160513
    5 Br    0.200176    0.111082    0.088961    0.053209
    6 C     0.028572    0.047156   -0.173489   -0.082179
    7 Br   -0.047647    0.223880   -0.155570    0.013757
    8 C     0.004689   -0.189878   -0.133515   -0.183579
    9 Br    0.001419   -0.346801   -0.019321    0.018928
   10 H    -0.203821   -0.001962   -0.076801    0.130897
   11 H    -0.169335   -0.141881    0.030414    0.122234
   12 H     0.193030   -0.121995    0.005366    0.164226
   13 H     0.073814   -0.099546    0.136686    0.140484
   14 H     0.136531    0.056483   -0.182787    0.131062
   15 H    -0.014715    0.004337   -0.263656    0.133344
   16 H     0.096218   -0.192686   -0.192461    0.182188
   17 H    -0.083198   -0.193270   -0.197734    0.185450
                                            ------------
                                                1.000000

 Dipole moment                                  0.317315

 Quadrupole moment Qxx                          3.812522
                   Qyy                         -6.201724
                   Qzz                          2.389202

 RMS deviation kJ/mol                           0.136132

 RRMS %                                         2.002903

 Task  times  cpu:       16.4s     wall:       16.4s


                                NWChem Input Module
                                -------------------


 Summary of allocated global arrays
-----------------------------------
  No active global arrays



                         GA Statistics for process    0
                         ------------------------------

       create   destroy   get      put      acc     scatter   gather  read&inc
calls: 2253     2253     7.16e+06 3.11e+05 2.90e+06    0        0     8.30e+04 
number of processes/call 0.00e+00 0.00e+00 0.00e+00 0.00e+00 0.00e+00
bytes total:             1.20e+10 8.32e+08 5.51e+09 0.00e+00 0.00e+00 6.64e+05
bytes remote:            0.00e+00 0.00e+00 0.00e+00 0.00e+00 0.00e+00 0.00e+00
Max memory consumed for GA by this process: 16648632 bytes

MA_summarize_allocated_blocks: starting scan ...
MA_summarize_allocated_blocks: scan completed: 0 heap blocks, 0 stack blocks
MA usage statistics:

	allocation statistics:
					      heap	     stack
					      ----	     -----
	current number of blocks	         0	         0
	maximum number of blocks	        23	        53
	current total bytes		         0	         0
	maximum total bytes		  23072936	  55979880
	maximum total K-bytes		     23073	     55980
	maximum total M-bytes		        24	        56


                                     CITATION
                                     --------
                Please cite the following reference when publishing
                           results obtained with NWChem:

                 M. Valiev, E.J. Bylaska, N. Govind, K. Kowalski,
              T.P. Straatsma, H.J.J. van Dam, D. Wang, J. Nieplocha,
                        E. Apra, T.L. Windus, W.A. de Jong
                 "NWChem: a comprehensive and scalable open-source
                  solution for large scale molecular simulations"
                      Comput. Phys. Commun. 181, 1477 (2010)
                           doi:10.1016/j.cpc.2010.04.018

                                      AUTHORS
                                      -------
     E. Apra, E. J. Bylaska, N. Govind, K. Kowalski, M. Valiev, W. A. de Jong,
      T. P. Straatsma, H. J. J. van Dam, D. Wang, T. L. Windus, N. P. Bauman,
       A. Panyala, J. Hammond, J. Autschbach, K. Bhaskaran-Nair, J. Brabec,
    K. Lopata, S. A. Fischer, S. Krishnamoorthy, M. Jacquelin, W. Ma, M. Klemm,
       O. Villa, Y. Chen, V. Anisimov, F. Aquino, S. Hirata, M. T. Hackler,
           Eric Hermes, L. Jensen, J. E. Moore, J. C. Becca, V. Konjkov,
            D. Mejia-Rodriguez, T. Risthaus, M. Malagoli, A. Marenich,
   A. Otero-de-la-Roza, J. Mullin, P. Nichols, R. Peverati, J. Pittner, Y. Zhao,
        P.-D. Fan, A. Fonari, M. J. Williamson, R. J. Harrison, J. R. Rehr,
      M. Dupuis, D. Silverstein, D. M. A. Smith, J. Nieplocha, V. Tipparaju,
      M. Krishnan, B. E. Van Kuiken, A. Vazquez-Mayagoitia, M. Swart, Q. Wu,
   T. Van Voorhis, A. A. Auer, M. Nooijen, L. D. Crosby, E. Brown, G. Cisneros,
     G. I. Fann, H. Fruchtl, J. Garza, K. Hirao, R. A. Kendall, J. A. Nichols,
       K. Tsemekhman, K. Wolinski, J. Anchell, D. E. Bernholdt, P. Borowski,
       T. Clark, D. Clerc, H. Dachsel, M. J. O. Deegan, K. Dyall, D. Elwood,
      E. Glendening, M. Gutowski, A. C. Hess, J. Jaffe, B. G. Johnson, J. Ju,
        R. Kobayashi, R. Kutteh, Z. Lin, R. Littlefield, X. Long, B. Meng,
      T. Nakajima, S. Niu, L. Pollack, M. Rosing, K. Glaesemann, G. Sandrone,
      M. Stave, H. Taylor, G. Thomas, J. H. van Lenthe, A. T. Wong, Z. Zhang.

 Total times  cpu:     4290.7s     wall:     4290.7s
