 argument  1 = /Users/apple/Desktop/王应泽/本科生科研/Science_Denmark/复现/NWChem_calc/286/286.nw



============================== echo of input deck ==============================
echo
title 286_ESP_Calculation
start 286

geometry
	C	-1.5665070031134651 	-1.2275737040229124 	-0.9108953665799502
	N	-1.529844801991129  	-0.3360208390143736 	0.3214955214402575
	C	-2.593745304881057  	-0.8403213363160996 	1.3023407141932657
	C	-1.9004086739802664 	1.0824823352969948  	-0.08535789855242311
	C	-0.154879661232088  	-0.3966623135860674 	1.0473101347949447
	C	1.08670986411798    	0.049538126256258065	0.3009165589252956
	C	1.5466854580369136  	1.3830038742539525  	0.3596910705644371
	Cl	0.7628852103576865  	2.588145554282193   	1.3218455948575791
	C	2.687433828563639   	1.797734850039295   	-0.3369506161794324
	C	3.408838032663498   	0.882283577183337   	-1.0900776356169424
	Cl	4.807227911362936   	1.3907721280905945  	-1.9473470396322565
	C	3.011823286479075   	-0.446499429184169  	-1.1389680209206263
	C	1.8708512986035633  	-0.8596879161966322 	-0.44177587157392034
	Cl	1.5054217041343727  	-2.54897685865101   	-0.5139989960274911
	H	-1.3562171033571295 	-2.2548963463798386 	-0.6041568522906094
	H	-2.5691681586455006 	-1.1725511442852175 	-1.3471002965909726
	H	-0.8328365229851695 	-0.8625398147144161 	-1.6335807717745998
	H	-3.5688331704886647 	-0.8042770927852051 	0.8070982510402351
	H	-2.346650434312376  	-1.8685883806363783 	1.5826862735067426
	H	-2.5892192953023816 	-0.19038516728092683	2.182423877494055
	H	-1.1665522503692096 	1.4462588697553493  	-0.8084885529788555
	H	-2.8919768378173996 	1.0607759470014737  	-0.5489884025399642
	H	-1.9287470100417754 	1.706032689694053   	0.8113487070180254
	H	-0.04074030099772405	-1.4311462747609929 	1.3926925652143933
	H	-0.2741906904669563 	0.18394956367837678 	1.9698764071362833
	H	3.022521611198153   	2.8325782715702847  	-0.2819980409635668
	H	3.6001190144648194  	-1.1634291692882592 	-1.7100413139638393
end

charge 1

basis
	* library 6-31G*
end

dft
	xc b3lyp
	maxiter 2000
end
task dft optimize

esp
	recalculate
	range 0.2
	probe 0.1
	spacing 0.025
end
task esp
================================================================================


                                         
                                         


             Northwest Computational Chemistry Package (NWChem) 7.0.0
             --------------------------------------------------------


                    Environmental Molecular Sciences Laboratory
                       Pacific Northwest National Laboratory
                                Richland, WA 99352

                              Copyright (c) 1994-2019
                       Pacific Northwest National Laboratory
                            Battelle Memorial Institute

             NWChem is an open-source computational chemistry package
                        distributed under the terms of the
                      Educational Community License (ECL) 2.0
             A copy of the license is included with this distribution
                              in the LICENSE.TXT file

                                  ACKNOWLEDGMENT
                                  --------------

            This software and its documentation were developed at the
            EMSL at Pacific Northwest National Laboratory, a multiprogram
            national laboratory, operated for the U.S. Department of Energy
            by Battelle under Contract Number DE-AC05-76RL01830. Support
            for this work was provided by the Department of Energy Office
            of Biological and Environmental Research, Office of Basic
            Energy Sciences, and the Office of Advanced Scientific Computing.


           Job information
           ---------------

    hostname        = appledeMacBook-Pro.local
    program         = nwchem
    date            = Thu Jul 23 04:34:15 2020

    compiled        = Fri_Jul_03_06:05:09_2020
    source          = /private/tmp/nwchem-20200703-71421-tc8c0i/nwchem-7.0.0
    nwchem branch   = 7.0.0
    nwchem revision = 2c9a1c7c
    ga revision     = 5.7.1
    use scalapack   = T
    input           = /Users/apple/Desktop/王应泽/本科生科研/Science_Denmark/复现/NWChem_calc/286/286.nw
    prefix          = 286.
    data base       = ./286.db
    status          = startup
    nproc           =        1
    time left       =     -1s



           Memory information
           ------------------

    heap     =   13107196 doubles =    100.0 Mbytes
    stack    =   13107201 doubles =    100.0 Mbytes
    global   =   26214400 doubles =    200.0 Mbytes (distinct from heap & stack)
    total    =   52428797 doubles =    400.0 Mbytes
    verify   = yes
    hardfail = no 


           Directory information
           ---------------------

  0 permanent = .
  0 scratch   = .




                                NWChem Input Module
                                -------------------


                                286_ESP_Calculation
                                -------------------

 Scaling coordinates for geometry "geometry" by  1.889725989
 (inverse scale =  0.529177249)

 CS  symmetry detected

          ------
          auto-z
          ------
  no constraints, skipping    0.0000000000000000     
  no constraints, skipping    0.0000000000000000     


                             Geometry "geometry" -> ""
                             -------------------------

 Output coordinates in angstroms (scale by  1.889725989 to convert to a.u.)

  No.       Tag          Charge          X              Y              Z
 ---- ---------------- ---------- -------------- -------------- --------------
    1 C                    6.0000    -1.27740627     2.54133230    -1.23787735
    2 N                    7.0000    -0.40319294     2.67701195     0.00000000
    3 C                    6.0000     0.20210621     4.08480224     0.00000000
    4 C                    6.0000    -1.27740627     2.54133230     1.23787735
    5 C                    6.0000     0.77377046     1.65928384     0.00000000
    6 C                    6.0000     0.45881212     0.17653504     0.00000000
    7 C                    6.0000     0.33246087    -0.55348066     1.20177985
    8 Cl                  17.0000     0.57604839     0.17277105     2.75280368
    9 C                    6.0000     0.03216707    -1.92039010     1.20260633
   10 C                    6.0000    -0.12536018    -2.59462930     0.00000000
   11 Cl                  17.0000    -0.49642342    -4.27131584     0.00000000
   12 C                    6.0000     0.03216707    -1.92039010    -1.20260633
   13 C                    6.0000     0.33246087    -0.55348066    -1.20177985
   14 Cl                  17.0000     0.57604839     0.17277105    -2.75280368
   15 H                    1.0000    -0.65533237     2.69666650    -2.12252240
   16 H                    1.0000    -2.05580455     3.31012173    -1.19675999
   17 H                    1.0000    -1.74050722     1.55171950    -1.23720398
   18 H                    1.0000    -0.61341364     4.81438295     0.00000000
   19 H                    1.0000     0.81478640     4.19830786    -0.89929012
   20 H                    1.0000     0.81478640     4.19830786     0.89929012
   21 H                    1.0000    -1.74050722     1.55171950     1.23720398
   22 H                    1.0000    -2.05580455     3.31012173     1.19675999
   23 H                    1.0000    -0.65533237     2.69666650     2.12252240
   24 H                    1.0000     1.39599653     1.91670343    -0.86547311
   25 H                    1.0000     1.39599653     1.91670343     0.86547311
   26 H                    1.0000    -0.06579613    -2.46392015     2.14131979
   27 H                    1.0000    -0.06579613    -2.46392015    -2.14131979

      Atomic Mass 
      ----------- 

      C                 12.000000
      N                 14.003070
      Cl                34.968850
      H                  1.007825


 Effective nuclear repulsion energy (a.u.)    1251.9625087904

            Nuclear Dipole moment (a.u.) 
            ----------------------------
        X                 Y               Z
 ---------------- ---------------- ----------------
    -0.0000000000    -0.0000000000     0.0000000000

      Symmetry information
      --------------------

 Group name             Cs        
 Group number              2
 Group order               2
 No. of unique centers    17

      Symmetry unique atoms

     1    2    3    5    6    7    8    9   10   11   15   16   17   18   19
    24   26



                                Z-matrix (autoz)
                                -------- 

 Units are Angstrom for bonds and degrees for angles

      Type          Name      I     J     K     L     M      Value
      ----------- --------  ----- ----- ----- ----- ----- ----------
    1 Stretch                  1     2                       1.52151
    2 Stretch                  1    15                       1.09257
    3 Stretch                  1    16                       1.09482
    4 Stretch                  1    17                       1.09261
    5 Stretch                  2     3                       1.53240
    6 Stretch                  2     4                       1.52151
    7 Stretch                  2     5                       1.55596
    8 Stretch                  3    18                       1.09424
    9 Stretch                  3    19                       1.09407
   10 Stretch                  3    20                       1.09407
   11 Stretch                  4    21                       1.09261
   12 Stretch                  4    22                       1.09482
   13 Stretch                  4    23                       1.09257
   14 Stretch                  5     6                       1.51583
   15 Stretch                  5    24                       1.09657
   16 Stretch                  5    25                       1.09657
   17 Stretch                  6     7                       1.41179
   18 Stretch                  6    13                       1.41179
   19 Stretch                  7     8                       1.72987
   20 Stretch                  7     9                       1.39951
   21 Stretch                  9    10                       1.38769
   22 Stretch                  9    26                       1.08913
   23 Stretch                 10    11                       1.71726
   24 Stretch                 10    12                       1.38769
   25 Stretch                 12    13                       1.39951
   26 Stretch                 12    27                       1.08913
   27 Stretch                 13    14                       1.72987
   28 Bend                     1     2     3               107.99158
   29 Bend                     1     2     4               108.89514
   30 Bend                     1     2     5               112.10402
   31 Bend                     2     1    15               108.59848
   32 Bend                     2     1    16               108.38102
   33 Bend                     2     1    17               108.89269
   34 Bend                     2     3    18               108.55050
   35 Bend                     2     3    19               108.45204
   36 Bend                     2     3    20               108.45204
   37 Bend                     2     4    21               108.89269
   38 Bend                     2     4    22               108.38102
   39 Bend                     2     4    23               108.59848
   40 Bend                     2     5     6               118.85794
   41 Bend                     2     5    24               106.00191
   42 Bend                     2     5    25               106.00191
   43 Bend                     3     2     4               107.99158
   44 Bend                     3     2     5               107.58423
   45 Bend                     4     2     5               112.10402
   46 Bend                     5     6     7               121.62748
   47 Bend                     5     6    13               121.62748
   48 Bend                     6     5    24               110.33604
   49 Bend                     6     5    25               110.33604
   50 Bend                     6     7     8               122.24534
   51 Bend                     6     7     9               121.65115
   52 Bend                     6    13    12               121.65115
   53 Bend                     6    13    14               122.24534
   54 Bend                     7     6    13               116.69426
   55 Bend                     7     9    10               119.89431
   56 Bend                     7     9    26               120.47981
   57 Bend                     8     7     9               116.08706
   58 Bend                     9    10    11               119.92878
   59 Bend                     9    10    12               120.13790
   60 Bend                    10     9    26               119.62057
   61 Bend                    10    12    13               119.89431
   62 Bend                    10    12    27               119.62057
   63 Bend                    11    10    12               119.92878
   64 Bend                    12    13    14               116.08706
   65 Bend                    13    12    27               120.47981
   66 Bend                    15     1    16               109.59599
   67 Bend                    15     1    17               111.75242
   68 Bend                    16     1    17               109.55059
   69 Bend                    18     3    19               110.37655
   70 Bend                    18     3    20               110.37655
   71 Bend                    19     3    20               110.56491
   72 Bend                    21     4    22               109.55059
   73 Bend                    21     4    23               111.75242
   74 Bend                    22     4    23               109.59599
   75 Bend                    24     5    25               104.23135
   76 Torsion                  1     2     3    18          58.80526
   77 Torsion                  1     2     3    19         -61.13821
   78 Torsion                  1     2     3    20         178.74873
   79 Torsion                  1     2     4    21          61.31544
   80 Torsion                  1     2     4    22         -57.79073
   81 Torsion                  1     2     4    23        -176.78404
   82 Torsion                  1     2     5     6         -61.41688
   83 Torsion                  1     2     5    24          63.39143
   84 Torsion                  1     2     5    25         173.77481
   85 Torsion                  2     5     6     7         -91.33890
   86 Torsion                  2     5     6    13          91.33890
   87 Torsion                  3     2     1    15          59.75688
   88 Torsion                  3     2     1    16         -59.23644
   89 Torsion                  3     2     1    17        -178.34260
   90 Torsion                  3     2     4    21         178.34260
   91 Torsion                  3     2     4    22          59.23644
   92 Torsion                  3     2     4    23         -59.75688
   93 Torsion                  3     2     5     6         180.00000
   94 Torsion                  3     2     5    24         -55.19169
   95 Torsion                  3     2     5    25          55.19169
   96 Torsion                  4     2     1    15         176.78404
   97 Torsion                  4     2     1    16          57.79073
   98 Torsion                  4     2     1    17         -61.31544
   99 Torsion                  4     2     3    18         -58.80526
  100 Torsion                  4     2     3    19        -178.74873
  101 Torsion                  4     2     3    20          61.13821
  102 Torsion                  4     2     5     6          61.41688
  103 Torsion                  4     2     5    24        -173.77481
  104 Torsion                  4     2     5    25         -63.39143
  105 Torsion                  5     2     1    15         -58.58515
  106 Torsion                  5     2     1    16        -177.57847
  107 Torsion                  5     2     1    17          63.31537
  108 Torsion                  5     2     3    18         180.00000
  109 Torsion                  5     2     3    19          60.05653
  110 Torsion                  5     2     3    20         -60.05653
  111 Torsion                  5     2     4    21         -63.31537
  112 Torsion                  5     2     4    22         177.57847
  113 Torsion                  5     2     4    23          58.58515
  114 Torsion                  5     6     7     8          -2.00179
  115 Torsion                  5     6     7     9         179.53151
  116 Torsion                  5     6    13    12        -179.53151
  117 Torsion                  5     6    13    14           2.00179
  118 Torsion                  6     7     9    10           1.14705
  119 Torsion                  6     7     9    26        -179.69407
  120 Torsion                  6    13    12    10          -1.14705
  121 Torsion                  6    13    12    27         179.69407
  122 Torsion                  7     6     5    24         145.98286
  123 Torsion                  7     6     5    25          31.33935
  124 Torsion                  7     6    13    12           3.02049
  125 Torsion                  7     6    13    14        -175.44621
  126 Torsion                  7     9    10    11        -179.89821
  127 Torsion                  7     9    10    12           0.87682
  128 Torsion                  8     7     6    13         175.44621
  129 Torsion                  8     7     9    10        -177.40905
  130 Torsion                  8     7     9    26           1.74982
  131 Torsion                  9     7     6    13          -3.02049
  132 Torsion                  9    10    12    13          -0.87682
  133 Torsion                  9    10    12    27         178.28932
  134 Torsion                 10    12    13    14         177.40905
  135 Torsion                 11    10     9    26           0.93565
  136 Torsion                 11    10    12    13         179.89821
  137 Torsion                 11    10    12    27          -0.93565
  138 Torsion                 12    10     9    26        -178.28932
  139 Torsion                 13     6     5    24         -31.33935
  140 Torsion                 13     6     5    25        -145.98286
  141 Torsion                 14    13    12    27          -1.74982


            XYZ format geometry
            -------------------
    27
 geometry
 C                    -1.27740627     2.54133230    -1.23787735
 N                    -0.40319294     2.67701195     0.00000000
 C                     0.20210621     4.08480224     0.00000000
 C                    -1.27740627     2.54133230     1.23787735
 C                     0.77377046     1.65928384     0.00000000
 C                     0.45881212     0.17653504     0.00000000
 C                     0.33246087    -0.55348066     1.20177985
 Cl                    0.57604839     0.17277105     2.75280368
 C                     0.03216707    -1.92039010     1.20260633
 C                    -0.12536018    -2.59462930     0.00000000
 Cl                   -0.49642342    -4.27131584     0.00000000
 C                     0.03216707    -1.92039010    -1.20260633
 C                     0.33246087    -0.55348066    -1.20177985
 Cl                    0.57604839     0.17277105    -2.75280368
 H                    -0.65533237     2.69666650    -2.12252240
 H                    -2.05580455     3.31012173    -1.19675999
 H                    -1.74050722     1.55171950    -1.23720398
 H                    -0.61341364     4.81438295     0.00000000
 H                     0.81478640     4.19830786    -0.89929012
 H                     0.81478640     4.19830786     0.89929012
 H                    -1.74050722     1.55171950     1.23720398
 H                    -2.05580455     3.31012173     1.19675999
 H                    -0.65533237     2.69666650     2.12252240
 H                     1.39599653     1.91670343    -0.86547311
 H                     1.39599653     1.91670343     0.86547311
 H                    -0.06579613    -2.46392015     2.14131979
 H                    -0.06579613    -2.46392015    -2.14131979

 ==============================================================================
                                internuclear distances
 ------------------------------------------------------------------------------
       center one      |      center two      | atomic units |  angstroms
 ------------------------------------------------------------------------------
    2 N                |   1 C                |     2.87524  |     1.52151
    3 C                |   2 N                |     2.89582  |     1.53240
    4 C                |   2 N                |     2.87524  |     1.52151
    5 C                |   2 N                |     2.94034  |     1.55596
    6 C                |   5 C                |     2.86450  |     1.51583
    7 C                |   6 C                |     2.66790  |     1.41179
    8 Cl               |   7 C                |     3.26898  |     1.72987
    9 C                |   7 C                |     2.64468  |     1.39951
   10 C                |   9 C                |     2.62235  |     1.38769
   11 Cl               |  10 C                |     3.24514  |     1.71726
   12 C                |  10 C                |     2.62235  |     1.38769
   13 C                |   6 C                |     2.66790  |     1.41179
   13 C                |  12 C                |     2.64468  |     1.39951
   14 Cl               |  13 C                |     3.26898  |     1.72987
   15 H                |   1 C                |     2.06465  |     1.09257
   16 H                |   1 C                |     2.06891  |     1.09482
   17 H                |   1 C                |     2.06473  |     1.09261
   18 H                |   3 C                |     2.06781  |     1.09424
   19 H                |   3 C                |     2.06749  |     1.09407
   20 H                |   3 C                |     2.06749  |     1.09407
   21 H                |   4 C                |     2.06473  |     1.09261
   22 H                |   4 C                |     2.06891  |     1.09482
   23 H                |   4 C                |     2.06465  |     1.09257
   24 H                |   5 C                |     2.07222  |     1.09657
   25 H                |   5 C                |     2.07222  |     1.09657
   26 H                |   9 C                |     2.05816  |     1.08913
   27 H                |  12 C                |     2.05816  |     1.08913
 ------------------------------------------------------------------------------
                         number of included internuclear distances:         27
 ==============================================================================



 ==============================================================================
                                 internuclear angles
 ------------------------------------------------------------------------------
        center 1       |       center 2       |       center 3       |  degrees
 ------------------------------------------------------------------------------
    2 N                |   1 C                |  15 H                |   108.60
    2 N                |   1 C                |  16 H                |   108.38
    2 N                |   1 C                |  17 H                |   108.89
   15 H                |   1 C                |  16 H                |   109.60
   15 H                |   1 C                |  17 H                |   111.75
   16 H                |   1 C                |  17 H                |   109.55
    1 C                |   2 N                |   3 C                |   107.99
    1 C                |   2 N                |   4 C                |   108.90
    1 C                |   2 N                |   5 C                |   112.10
    3 C                |   2 N                |   4 C                |   107.99
    3 C                |   2 N                |   5 C                |   107.58
    4 C                |   2 N                |   5 C                |   112.10
    2 N                |   3 C                |  18 H                |   108.55
    2 N                |   3 C                |  19 H                |   108.45
    2 N                |   3 C                |  20 H                |   108.45
   18 H                |   3 C                |  19 H                |   110.38
   18 H                |   3 C                |  20 H                |   110.38
   19 H                |   3 C                |  20 H                |   110.56
    2 N                |   4 C                |  21 H                |   108.89
    2 N                |   4 C                |  22 H                |   108.38
    2 N                |   4 C                |  23 H                |   108.60
   21 H                |   4 C                |  22 H                |   109.55
   21 H                |   4 C                |  23 H                |   111.75
   22 H                |   4 C                |  23 H                |   109.60
    2 N                |   5 C                |   6 C                |   118.86
    2 N                |   5 C                |  24 H                |   106.00
    2 N                |   5 C                |  25 H                |   106.00
    6 C                |   5 C                |  24 H                |   110.34
    6 C                |   5 C                |  25 H                |   110.34
   24 H                |   5 C                |  25 H                |   104.23
    5 C                |   6 C                |   7 C                |   121.63
    5 C                |   6 C                |  13 C                |   121.63
    7 C                |   6 C                |  13 C                |   116.69
    6 C                |   7 C                |   8 Cl               |   122.25
    6 C                |   7 C                |   9 C                |   121.65
    8 Cl               |   7 C                |   9 C                |   116.09
    7 C                |   9 C                |  10 C                |   119.89
    7 C                |   9 C                |  26 H                |   120.48
   10 C                |   9 C                |  26 H                |   119.62
    9 C                |  10 C                |  11 Cl               |   119.93
    9 C                |  10 C                |  12 C                |   120.14
   11 Cl               |  10 C                |  12 C                |   119.93
   10 C                |  12 C                |  13 C                |   119.89
   10 C                |  12 C                |  27 H                |   119.62
   13 C                |  12 C                |  27 H                |   120.48
    6 C                |  13 C                |  12 C                |   121.65
    6 C                |  13 C                |  14 Cl               |   122.25
   12 C                |  13 C                |  14 Cl               |   116.09
 ------------------------------------------------------------------------------
                            number of included internuclear angles:         48
 ==============================================================================



  library name resolved from: .nwchemrc
  library file name is: </usr/local/Cellar/nwchem/7.0.0_2/share/nwchem/libraries/>
  


 Summary of "ao basis" -> "" (cartesian)
 ------------------------------------------------------------------------------
       Tag                 Description            Shells   Functions and Types
 ---------------- ------------------------------  ------  ---------------------
 *                           6-31G*                   on all atoms 




                           NWChem Geometry Optimization
                           ----------------------------




                                286_ESP_Calculation


  no constraints, skipping    0.0000000000000000     
 maximum gradient threshold         (gmax) =   0.000450
 rms gradient threshold             (grms) =   0.000300
 maximum cartesian step threshold   (xmax) =   0.001800
 rms cartesian step threshold       (xrms) =   0.001200
 fixed trust radius                (trust) =   0.300000
 maximum step size to saddle      (sadstp) =   0.100000
 energy precision                  (eprec) =   5.0D-06
 maximum number of steps          (nptopt) =   20
 initial hessian option           (inhess) =    0
 line search option               (linopt) =    1
 hessian update option            (modupd) =    1
 saddle point option              (modsad) =    0
 initial eigen-mode to follow     (moddir) =    0
 initial variable to follow       (vardir) =    0
 follow first negative mode     (firstneg) =    T
 apply conjugacy                    (opcg) =    F
 source of zmatrix                         =   autoz   


          -------------------
          Energy Minimization
          -------------------


 Names of Z-matrix variables 
    1              2              3              4              5         
    6              7              8              9             10         
   11             12             13             14             15         
   16             17             18             19             20         
   21             22             23             24             25         
   26             27             28             29             30         
   31             32             33             34             35         
   36             37             38             39             40         
   41             42             43             44             45         
   46             47             48             49             50         
   51             52             53             54             55         
   56             57             58             59             60         
   61             62             63             64             65         
   66             67             68             69             70         
   71             72             73             74             75         
   76             77             78             79             80         
   81             82             83             84             85         
   86             87             88             89             90         
   91             92             93             94             95         
   96             97             98             99            100         
  101            102            103            104            105         
  106            107            108            109            110         
  111            112            113            114            115         
  116            117            118            119            120         
  121            122            123            124            125         
  126            127            128            129            130         
  131            132            133            134            135         
  136            137            138            139            140         
  141         

 Variables with the same non-blank name are constrained to be equal


 Using diagonal initial Hessian 
 Scaling for Hessian diagonals: bonds = 1.00  angles = 0.25  torsions = 0.10

          --------
          Step   0
          --------


                         Geometry "geometry" -> "geometry"
                         ---------------------------------

 Output coordinates in angstroms (scale by  1.889725989 to convert to a.u.)

  No.       Tag          Charge          X              Y              Z
 ---- ---------------- ---------- -------------- -------------- --------------
    1 C                    6.0000    -1.27740627     2.54133230    -1.23787735
    2 N                    7.0000    -0.40319294     2.67701195     0.00000000
    3 C                    6.0000     0.20210621     4.08480224     0.00000000
    4 C                    6.0000    -1.27740627     2.54133230     1.23787735
    5 C                    6.0000     0.77377046     1.65928384     0.00000000
    6 C                    6.0000     0.45881212     0.17653504     0.00000000
    7 C                    6.0000     0.33246087    -0.55348066     1.20177985
    8 Cl                  17.0000     0.57604839     0.17277105     2.75280368
    9 C                    6.0000     0.03216707    -1.92039010     1.20260633
   10 C                    6.0000    -0.12536018    -2.59462930     0.00000000
   11 Cl                  17.0000    -0.49642342    -4.27131584     0.00000000
   12 C                    6.0000     0.03216707    -1.92039010    -1.20260633
   13 C                    6.0000     0.33246087    -0.55348066    -1.20177985
   14 Cl                  17.0000     0.57604839     0.17277105    -2.75280368
   15 H                    1.0000    -0.65533237     2.69666650    -2.12252240
   16 H                    1.0000    -2.05580455     3.31012173    -1.19675999
   17 H                    1.0000    -1.74050722     1.55171950    -1.23720398
   18 H                    1.0000    -0.61341364     4.81438295     0.00000000
   19 H                    1.0000     0.81478640     4.19830786    -0.89929012
   20 H                    1.0000     0.81478640     4.19830786     0.89929012
   21 H                    1.0000    -1.74050722     1.55171950     1.23720398
   22 H                    1.0000    -2.05580455     3.31012173     1.19675999
   23 H                    1.0000    -0.65533237     2.69666650     2.12252240
   24 H                    1.0000     1.39599653     1.91670343    -0.86547311
   25 H                    1.0000     1.39599653     1.91670343     0.86547311
   26 H                    1.0000    -0.06579613    -2.46392015     2.14131979
   27 H                    1.0000    -0.06579613    -2.46392015    -2.14131979

      Atomic Mass 
      ----------- 

      C                 12.000000
      N                 14.003070
      Cl                34.968850
      H                  1.007825


 Effective nuclear repulsion energy (a.u.)    1251.9625087904

            Nuclear Dipole moment (a.u.) 
            ----------------------------
        X                 Y               Z
 ---------------- ---------------- ----------------
    -0.0000000000    -0.0000000000     0.0000000000

      Symmetry information
      --------------------

 Group name             Cs        
 Group number              2
 Group order               2
 No. of unique centers    17

      Symmetry unique atoms

     1    2    3    5    6    7    8    9   10   11   15   16   17   18   19
    24   26


                                 NWChem DFT Module
                                 -----------------


                                286_ESP_Calculation


                      Basis "ao basis" -> "ao basis" (cartesian)
                      -----
  C (Carbon)
  ----------
            Exponent  Coefficients 
       -------------- ---------------------------------------------------------
  1 S  3.04752490E+03  0.001835
  1 S  4.57369510E+02  0.014037
  1 S  1.03948690E+02  0.068843
  1 S  2.92101550E+01  0.232184
  1 S  9.28666300E+00  0.467941
  1 S  3.16392700E+00  0.362312

  2 S  7.86827240E+00 -0.119332
  2 S  1.88128850E+00 -0.160854
  2 S  5.44249300E-01  1.143456

  3 P  7.86827240E+00  0.068999
  3 P  1.88128850E+00  0.316424
  3 P  5.44249300E-01  0.744308

  4 S  1.68714400E-01  1.000000

  5 P  1.68714400E-01  1.000000

  6 D  8.00000000E-01  1.000000

  N (Nitrogen)
  ------------
            Exponent  Coefficients 
       -------------- ---------------------------------------------------------
  1 S  4.17351100E+03  0.001835
  1 S  6.27457900E+02  0.013995
  1 S  1.42902100E+02  0.068587
  1 S  4.02343300E+01  0.232241
  1 S  1.28202100E+01  0.469070
  1 S  4.39043700E+00  0.360455

  2 S  1.16263580E+01 -0.114961
  2 S  2.71628000E+00 -0.169118
  2 S  7.72218000E-01  1.145852

  3 P  1.16263580E+01  0.067580
  3 P  2.71628000E+00  0.323907
  3 P  7.72218000E-01  0.740895

  4 S  2.12031300E-01  1.000000

  5 P  2.12031300E-01  1.000000

  6 D  8.00000000E-01  1.000000

  Cl (Chlorine)
  -------------
            Exponent  Coefficients 
       -------------- ---------------------------------------------------------
  1 S  2.51801000E+04  0.001833
  1 S  3.78035000E+03  0.014034
  1 S  8.60474000E+02  0.069097
  1 S  2.42145000E+02  0.237452
  1 S  7.73349000E+01  0.483034
  1 S  2.62470000E+01  0.339856

  2 S  4.91765000E+02 -0.002297
  2 S  1.16984000E+02 -0.030714
  2 S  3.74153000E+01 -0.112528
  2 S  1.37834000E+01  0.045016
  2 S  5.45215000E+00  0.589353
  2 S  2.22588000E+00  0.465206

  3 P  4.91765000E+02  0.003989
  3 P  1.16984000E+02  0.030318
  3 P  3.74153000E+01  0.129880
  3 P  1.37834000E+01  0.327951
  3 P  5.45215000E+00  0.453527
  3 P  2.22588000E+00  0.252154

  4 S  3.18649000E+00 -0.251830
  4 S  1.14427000E+00  0.061589
  4 S  4.20377000E-01  1.060180

  5 P  3.18649000E+00 -0.014299
  5 P  1.14427000E+00  0.323572
  5 P  4.20377000E-01  0.743507

  6 S  1.42657000E-01  1.000000

  7 P  1.42657000E-01  1.000000

  8 D  7.50000000E-01  1.000000

  H (Hydrogen)
  ------------
            Exponent  Coefficients 
       -------------- ---------------------------------------------------------
  1 S  1.87311370E+01  0.033495
  1 S  2.82539370E+00  0.234727
  1 S  6.40121700E-01  0.813757

  2 S  1.61277800E-01  1.000000



 Summary of "ao basis" -> "ao basis" (cartesian)
 ------------------------------------------------------------------------------
       Tag                 Description            Shells   Functions and Types
 ---------------- ------------------------------  ------  ---------------------
 C                           6-31G*                  6       15   3s2p1d
 N                           6-31G*                  6       15   3s2p1d
 Cl                          6-31G*                  8       19   4s3p1d
 H                           6-31G*                  2        2   2s




 Summary of "ao basis" -> "ao basis" (cartesian)
 ------------------------------------------------------------------------------
       Tag                 Description            Shells   Functions and Types
 ---------------- ------------------------------  ------  ---------------------
 C                           6-31G*                  6       15   3s2p1d
 N                           6-31G*                  6       15   3s2p1d
 Cl                          6-31G*                  8       19   4s3p1d
 H                           6-31G*                  2        2   2s


      Symmetry analysis of basis
      --------------------------

        a'        147
        a"        101

  Caching 1-el integrals 

            General Information
            -------------------
          SCF calculation type: DFT
          Wavefunction type:  closed shell.
          No. of atoms     :    27
          No. of electrons :   130
           Alpha electrons :    65
            Beta electrons :    65
          Charge           :     1
          Spin multiplicity:     1
          Use of symmetry is: on ; symmetry adaption is: on 
          Maximum number of iterations: ***
          AO basis - number of functions:   248
                     number of shells:   116
          Convergence on energy requested:  1.00D-06
          Convergence on density requested:  1.00D-05
          Convergence on gradient requested:  5.00D-04

              XC Information
              --------------
                         B3LYP Method XC Potential
                     Hartree-Fock (Exact) Exchange  0.200          
                        Slater Exchange Functional  0.800 local    
                    Becke 1988 Exchange Functional  0.720 non-local
              Lee-Yang-Parr Correlation Functional  0.810          
                  VWN I RPA Correlation Functional  0.190 local    

             Grid Information
             ----------------
          Grid used for XC integration:  medium    
          Radial quadrature: Mura-Knowles        
          Angular quadrature: Lebedev. 
          Tag              B.-S. Rad. Rad. Pts. Rad. Cut. Ang. Pts.
          ---              ---------- --------- --------- ---------
          C                   0.70       49          15.0       434
          N                   0.65       49          15.0       434
          Cl                  1.00       88          14.0       590
          H                   0.35       45          14.0       434
          Grid pruning is: on 
          Number of quadrature shells:   883
          Spatial weights used:  Erf1

          Convergence Information
          -----------------------
          Convergence aids based upon iterative change in 
          total energy or number of iterations. 
          Levelshifting, if invoked, occurs when the 
          HOMO/LUMO gap drops below (HL_TOL):  1.00D-02
          DIIS, if invoked, will attempt to extrapolate 
          using up to (NFOCK): 10 stored Fock matrices.

                    Damping( 0%)  Levelshifting(0.5)       DIIS
                  --------------- ------------------- ---------------
          dE  on:    start            ASAP                start   
          dE off:    2 iters        *** iters           *** iters 


      Screening Tolerance Information
      -------------------------------
          Density screening/tol_rho:  1.00D-10
          AO Gaussian exp screening on grid/accAOfunc:  14
          CD Gaussian exp screening on grid/accCDfunc:  20
          XC Gaussian exp screening on grid/accXCfunc:  20
          Schwarz screening/accCoul:  1.00D-08


      Superposition of Atomic Density Guess
      -------------------------------------

 Sum of atomic energies:       -1815.72505089

 Renormalizing density from     131.00 to    130

      Non-variational initial energy
      ------------------------------

 Total energy =   -1815.154675
 1-e energy   =   -4949.157808
 2-e energy   =    1882.040624
 HOMO         =      -0.441780
 LUMO         =      -0.181819


      Symmetry analysis of molecular orbitals - initial
      -------------------------------------------------

  Numbering of irreducible representations: 

     1 a'          2 a"      

  Orbital symmetries:

     1 a"          2 a'          3 a'          4 a'          5 a'      
     6 a'          7 a"          8 a'          9 a"         10 a'      
    11 a'         12 a'         13 a"         14 a'         15 a"      
    16 a'         17 a'         18 a"         19 a'         20 a"      
    21 a'         22 a'         23 a"         24 a'         25 a"      
    26 a'         27 a'         28 a'         29 a'         30 a"      
    31 a'         32 a"         33 a'         34 a'         35 a"      
    36 a'         37 a'         38 a"         39 a'         40 a'      
    41 a"         42 a'         43 a'         44 a"         45 a'      
    46 a"         47 a'         48 a'         49 a"         50 a'      
    51 a"         52 a'         53 a'         54 a"         55 a"      
    56 a'         57 a"         58 a'         59 a"         60 a"      
    61 a'         62 a"         63 a'         64 a"         65 a'      
    66 a'         67 a"         68 a'         69 a"         70 a'      
    71 a'         72 a'         73 a'         74 a"         75 a'      

   Time after variat. SCF:      7.1
   Time prior to 1st pass:      7.1

 Integral file          = ./286.aoints.0
 Record size in doubles =  65536        No. of integs per rec  =  43688
 Max. records in memory =      0        Max. records in file   = 107206
 No. of bits per label  =      8        No. of bits per value  =     64


 #quartets = 6.231D+06 #integrals = 1.052D+08 #direct =  0.0% #cached =100.0%


 Grid_pts file          = ./286.gridpts.0
 Record size in doubles =  12289        No. of grid_pts per rec  =   3070
 Max. records in memory =    188        Max. recs in file   =    559406

 Grid integrated density:     129.999836673314
 Requested integration accuracy:   0.10E-05

           Memory utilization after 1st SCF pass: 
           Heap Space remaining (MW):       10.72            10724100
          Stack Space remaining (MW):       13.10            13104956

   convergence    iter        energy       DeltaE   RMS-Dens  Diis-err    time
 ---------------- ----- ----------------- --------- --------- ---------  ------
 d= 0,ls=0.0,diis     1  -1823.7920562425 -3.08D+03  7.18D-03  2.52D+00    44.9
 Grid integrated density:     129.999835361796
 Requested integration accuracy:   0.10E-05
 d= 0,ls=0.0,diis     2  -1823.8087525043 -1.67D-02  6.56D-03  1.51D+00    55.9
 Grid integrated density:     129.999843586086
 Requested integration accuracy:   0.10E-05
 d= 0,ls=0.0,diis     3  -1823.9306870970 -1.22D-01  2.70D-03  4.57D-01    69.6
 Grid integrated density:     129.999841316052
 Requested integration accuracy:   0.10E-05
 d= 0,ls=0.0,diis     4  -1823.9850378843 -5.44D-02  6.47D-04  2.29D-02    83.5
 Grid integrated density:     129.999841099207
 Requested integration accuracy:   0.10E-05
 d= 0,ls=0.0,diis     5  -1823.9876459606 -2.61D-03  2.18D-04  3.05D-03    96.0
 Grid integrated density:     129.999840851093
 Requested integration accuracy:   0.10E-05
  Resetting Diis
 d= 0,ls=0.0,diis     6  -1823.9880322000 -3.86D-04  5.07D-05  2.05D-04   106.5
 Grid integrated density:     129.999840963431
 Requested integration accuracy:   0.10E-05
 d= 0,ls=0.0,diis     7  -1823.9880570281 -2.48D-05  2.56D-05  1.50D-05   117.1
 Grid integrated density:     129.999840982406
 Requested integration accuracy:   0.10E-05
 d= 0,ls=0.0,diis     8  -1823.9880551957  1.83D-06  1.61D-05  3.08D-05   128.6
 Grid integrated density:     129.999840975586
 Requested integration accuracy:   0.10E-05
 d= 0,ls=0.0,diis     9  -1823.9880587334 -3.54D-06  3.27D-06  7.64D-07   140.2
 Grid integrated density:     129.999840972267
 Requested integration accuracy:   0.10E-05
 d= 0,ls=0.0,diis    10  -1823.9880588238 -9.04D-08  1.04D-06  6.53D-08   152.7


         Total DFT energy =    -1823.988058823774
      One electron energy =    -4975.644507040214
           Coulomb energy =     2050.175073111333
    Exchange-Corr. energy =     -150.481133685276
 Nuclear repulsion energy =     1251.962508790382

 Numeric. integr. density =      129.999840972267

     Total iterative time =    145.6s



                  Occupations of the irreducible representations
                  ----------------------------------------------

                     irrep           alpha         beta
                     --------     --------     --------
                     a'               40.0         40.0
                     a"               25.0         25.0


                       DFT Final Molecular Orbital Analysis
                       ------------------------------------

 Vector    1  Occ=2.000000D+00  E=-1.016919D+02  Symmetry=a'
              MO Center=  5.8D-01,  1.7D-01, -7.8D-12, r^2= 7.6D+00
   Bfn.  Coefficient  Atom+Function         Bfn.  Coefficient  Atom+Function  
  ----- ------------  ---------------      ----- ------------  ---------------
   106      0.704277   8 Cl s               204      0.704277  14 Cl s         

 Vector    2  Occ=2.000000D+00  E=-1.016919D+02  Symmetry=a"
              MO Center=  5.8D-01,  1.7D-01,  7.8D-12, r^2= 7.6D+00
   Bfn.  Coefficient  Atom+Function         Bfn.  Coefficient  Atom+Function  
  ----- ------------  ---------------      ----- ------------  ---------------
   106      0.704277   8 Cl s               204     -0.704277  14 Cl s         

 Vector    3  Occ=2.000000D+00  E=-1.016695D+02  Symmetry=a'
              MO Center= -5.0D-01, -4.3D+00, -4.4D-18, r^2= 3.1D-03
   Bfn.  Coefficient  Atom+Function         Bfn.  Coefficient  Atom+Function  
  ----- ------------  ---------------      ----- ------------  ---------------
   155      0.995998  11 Cl s         

 Vector    4  Occ=2.000000D+00  E=-1.463196D+01  Symmetry=a'
              MO Center= -4.0D-01,  2.7D+00, -2.7D-18, r^2= 2.0D-02
   Bfn.  Coefficient  Atom+Function         Bfn.  Coefficient  Atom+Function  
  ----- ------------  ---------------      ----- ------------  ---------------
    16      0.992737   2 N  s                17      0.034530   2 N  s         

 Vector    5  Occ=2.000000D+00  E=-1.041185D+01  Symmetry=a'
              MO Center=  7.7D-01,  1.7D+00,  5.1D-16, r^2= 2.8D-02
   Bfn.  Coefficient  Atom+Function         Bfn.  Coefficient  Atom+Function  
  ----- ------------  ---------------      ----- ------------  ---------------
    61      0.993122   5 C  s                62      0.050157   5 C  s         

 Vector    6  Occ=2.000000D+00  E=-1.040607D+01  Symmetry=a'
              MO Center=  3.3D-01, -5.5D-01, -3.5D-09, r^2= 1.5D+00
   Bfn.  Coefficient  Atom+Function         Bfn.  Coefficient  Atom+Function  
  ----- ------------  ---------------      ----- ------------  ---------------
    91      0.702074   7 C  s               189      0.702074  13 C  s         
    92      0.034932   7 C  s               190      0.034932  13 C  s         

 Vector    7  Occ=2.000000D+00  E=-1.040607D+01  Symmetry=a"
              MO Center=  3.3D-01, -5.5D-01,  3.5D-09, r^2= 1.5D+00
   Bfn.  Coefficient  Atom+Function         Bfn.  Coefficient  Atom+Function  
  ----- ------------  ---------------      ----- ------------  ---------------
    91      0.702089   7 C  s               189     -0.702089  13 C  s         
    92      0.034897   7 C  s               190     -0.034897  13 C  s         

 Vector    8  Occ=2.000000D+00  E=-1.040414D+01  Symmetry=a'
              MO Center=  2.0D-01,  4.1D+00,  1.1D-15, r^2= 2.8D-02
   Bfn.  Coefficient  Atom+Function         Bfn.  Coefficient  Atom+Function  
  ----- ------------  ---------------      ----- ------------  ---------------
    31      0.992985   3 C  s                32      0.049985   3 C  s         

 Vector    9  Occ=2.000000D+00  E=-1.039787D+01  Symmetry=a"
              MO Center= -1.3D+00,  2.5D+00,  4.2D-09, r^2= 1.6D+00
   Bfn.  Coefficient  Atom+Function         Bfn.  Coefficient  Atom+Function  
  ----- ------------  ---------------      ----- ------------  ---------------
     1      0.702180   1 C  s                46     -0.702180   4 C  s         
     2      0.035568   1 C  s                47     -0.035568   4 C  s         

 Vector   10  Occ=2.000000D+00  E=-1.039786D+01  Symmetry=a'
              MO Center= -1.3D+00,  2.5D+00, -4.2D-09, r^2= 1.6D+00
   Bfn.  Coefficient  Atom+Function         Bfn.  Coefficient  Atom+Function  
  ----- ------------  ---------------      ----- ------------  ---------------
     1      0.702073   1 C  s                46      0.702073   4 C  s         
     2      0.035030   1 C  s                47      0.035030   4 C  s         

 Vector   11  Occ=2.000000D+00  E=-1.039230D+01  Symmetry=a'
              MO Center= -1.3D-01, -2.6D+00,  2.0D-15, r^2= 2.8D-02
   Bfn.  Coefficient  Atom+Function         Bfn.  Coefficient  Atom+Function  
  ----- ------------  ---------------      ----- ------------  ---------------
   140      0.992852  10 C  s               141      0.049469  10 C  s         

 Vector   12  Occ=2.000000D+00  E=-1.037335D+01  Symmetry=a'
              MO Center=  4.6D-01,  1.8D-01, -1.2D-15, r^2= 2.8D-02
   Bfn.  Coefficient  Atom+Function         Bfn.  Coefficient  Atom+Function  
  ----- ------------  ---------------      ----- ------------  ---------------
    76      0.992849   6 C  s                77      0.049849   6 C  s         

 Vector   13  Occ=2.000000D+00  E=-1.034296D+01  Symmetry=a"
              MO Center=  3.2D-02, -1.9D+00, -2.3D-10, r^2= 1.5D+00
   Bfn.  Coefficient  Atom+Function         Bfn.  Coefficient  Atom+Function  
  ----- ------------  ---------------      ----- ------------  ---------------
   125      0.701993   9 C  s               174     -0.701993  12 C  s         
   126      0.035330   9 C  s               175     -0.035330  12 C  s         

 Vector   14  Occ=2.000000D+00  E=-1.034296D+01  Symmetry=a'
              MO Center=  3.2D-02, -1.9D+00,  2.3D-10, r^2= 1.5D+00
   Bfn.  Coefficient  Atom+Function         Bfn.  Coefficient  Atom+Function  
  ----- ------------  ---------------      ----- ------------  ---------------
   125      0.702019   9 C  s               174      0.702019  12 C  s         
   126      0.035495   9 C  s               175      0.035495  12 C  s         

 Vector   15  Occ=2.000000D+00  E=-9.608453D+00  Symmetry=a'
              MO Center=  5.8D-01,  1.7D-01,  6.1D-09, r^2= 7.6D+00
   Bfn.  Coefficient  Atom+Function         Bfn.  Coefficient  Atom+Function  
  ----- ------------  ---------------      ----- ------------  ---------------
   107      0.722906   8 Cl s               205      0.722906  14 Cl s         
   106     -0.201272   8 Cl s               204     -0.201272  14 Cl s         
   111      0.052688   8 Cl s               209      0.052688  14 Cl s         

 Vector   16  Occ=2.000000D+00  E=-9.608451D+00  Symmetry=a"
              MO Center=  5.8D-01,  1.7D-01, -6.1D-09, r^2= 7.6D+00
   Bfn.  Coefficient  Atom+Function         Bfn.  Coefficient  Atom+Function  
  ----- ------------  ---------------      ----- ------------  ---------------
   107      0.722884   8 Cl s               205     -0.722884  14 Cl s         
   106     -0.201274   8 Cl s               204      0.201274  14 Cl s         
   111      0.052627   8 Cl s               209     -0.052627  14 Cl s         

 Vector   17  Occ=2.000000D+00  E=-9.586002D+00  Symmetry=a'
              MO Center= -5.0D-01, -4.3D+00,  9.5D-17, r^2= 6.6D-02
   Bfn.  Coefficient  Atom+Function         Bfn.  Coefficient  Atom+Function  
  ----- ------------  ---------------      ----- ------------  ---------------
   156      1.022262  11 Cl s               155     -0.284653  11 Cl s         
   160      0.074155  11 Cl s         

 Vector   18  Occ=2.000000D+00  E=-7.372553D+00  Symmetry=a'
              MO Center=  5.8D-01,  1.7D-01,  5.2D-10, r^2= 7.6D+00
   Bfn.  Coefficient  Atom+Function         Bfn.  Coefficient  Atom+Function  
  ----- ------------  ---------------      ----- ------------  ---------------
   110      0.632996   8 Cl pz              208     -0.632996  14 Cl pz        
   109      0.281726   8 Cl py              207      0.281726  14 Cl py        
   108      0.101034   8 Cl px              206      0.101034  14 Cl px        
    83     -0.029180   6 C  py        

 Vector   19  Occ=2.000000D+00  E=-7.372545D+00  Symmetry=a"
              MO Center=  5.8D-01,  1.7D-01, -5.2D-10, r^2= 7.6D+00
   Bfn.  Coefficient  Atom+Function         Bfn.  Coefficient  Atom+Function  
  ----- ------------  ---------------      ----- ------------  ---------------
   110      0.633258   8 Cl pz              208      0.633258  14 Cl pz        
   109      0.281286   8 Cl py              207     -0.281286  14 Cl py        
   108      0.100931   8 Cl px              206     -0.100931  14 Cl px        

 Vector   20  Occ=2.000000D+00  E=-7.362604D+00  Symmetry=a'
              MO Center=  5.8D-01,  1.7D-01, -4.2D-08, r^2= 7.6D+00
   Bfn.  Coefficient  Atom+Function         Bfn.  Coefficient  Atom+Function  
  ----- ------------  ---------------      ----- ------------  ---------------
   108      0.688855   8 Cl px              206      0.688855  14 Cl px        
   109     -0.114473   8 Cl py              207     -0.114473  14 Cl py        
   110     -0.059002   8 Cl pz              208      0.059002  14 Cl pz        

 Vector   21  Occ=2.000000D+00  E=-7.362604D+00  Symmetry=a"
              MO Center=  5.8D-01,  1.7D-01,  4.2D-08, r^2= 7.6D+00
   Bfn.  Coefficient  Atom+Function         Bfn.  Coefficient  Atom+Function  
  ----- ------------  ---------------      ----- ------------  ---------------
   108      0.689141   8 Cl px              206     -0.689141  14 Cl px        
   109     -0.112214   8 Cl py              207      0.112214  14 Cl py        
   110     -0.059987   8 Cl pz              208     -0.059987  14 Cl pz        

 Vector   22  Occ=2.000000D+00  E=-7.362256D+00  Symmetry=a"
              MO Center=  5.8D-01,  1.7D-01, -2.4D-09, r^2= 7.6D+00
   Bfn.  Coefficient  Atom+Function         Bfn.  Coefficient  Atom+Function  
  ----- ------------  ---------------      ----- ------------  ---------------
   109      0.631715   8 Cl py              207     -0.631715  14 Cl py        
   110     -0.292951   8 Cl pz              208     -0.292951  14 Cl pz        
   108      0.077382   8 Cl px              206     -0.077382  14 Cl px        

 Vector   23  Occ=2.000000D+00  E=-7.362248D+00  Symmetry=a'
              MO Center=  5.8D-01,  1.7D-01,  2.4D-09, r^2= 7.6D+00
   Bfn.  Coefficient  Atom+Function         Bfn.  Coefficient  Atom+Function  
  ----- ------------  ---------------      ----- ------------  ---------------
   109      0.631108   8 Cl py              207      0.631108  14 Cl py        
   110     -0.293708   8 Cl pz              208      0.293708  14 Cl pz        
   108      0.079751   8 Cl px              206      0.079751  14 Cl px        

 Vector   24  Occ=2.000000D+00  E=-7.350320D+00  Symmetry=a'
              MO Center= -5.0D-01, -4.3D+00,  1.5D-16, r^2= 5.8D-02
   Bfn.  Coefficient  Atom+Function         Bfn.  Coefficient  Atom+Function  
  ----- ------------  ---------------      ----- ------------  ---------------
   158      0.966790  11 Cl py              157      0.214316  11 Cl px        
   162      0.030984  11 Cl py        

 Vector   25  Occ=2.000000D+00  E=-7.340203D+00  Symmetry=a'
              MO Center= -5.0D-01, -4.3D+00, -1.8D-18, r^2= 5.8D-02
   Bfn.  Coefficient  Atom+Function         Bfn.  Coefficient  Atom+Function  
  ----- ------------  ---------------      ----- ------------  ---------------
   157      0.967627  11 Cl px              158     -0.214501  11 Cl py        
   161      0.027530  11 Cl px        

 Vector   26  Occ=2.000000D+00  E=-7.339488D+00  Symmetry=a"
              MO Center= -5.0D-01, -4.3D+00, -1.9D-16, r^2= 5.8D-02
   Bfn.  Coefficient  Atom+Function         Bfn.  Coefficient  Atom+Function  
  ----- ------------  ---------------      ----- ------------  ---------------
   159      0.990969  11 Cl pz              163      0.028978  11 Cl pz        

 Vector   27  Occ=2.000000D+00  E=-1.168282D+00  Symmetry=a'
              MO Center= -4.0D-01,  2.7D+00, -1.8D-17, r^2= 1.1D+00
   Bfn.  Coefficient  Atom+Function         Bfn.  Coefficient  Atom+Function  
  ----- ------------  ---------------      ----- ------------  ---------------
    21      0.422841   2 N  s                17      0.377277   2 N  s         
    16     -0.182455   2 N  s                32      0.111392   3 C  s         
     2      0.110392   1 C  s                47      0.110392   4 C  s         
    62      0.108074   5 C  s                34     -0.064883   3 C  py        
    31     -0.059494   3 C  s                 1     -0.059043   1 C  s         

 Vector   28  Occ=2.000000D+00  E=-1.057719D+00  Symmetry=a'
              MO Center=  2.9D-01, -7.4D-01,  1.0D-16, r^2= 4.2D+00
   Bfn.  Coefficient  Atom+Function         Bfn.  Coefficient  Atom+Function  
  ----- ------------  ---------------      ----- ------------  ---------------
   111      0.247122   8 Cl s               209      0.247122  14 Cl s         
    92      0.183241   7 C  s               190      0.183241  13 C  s         
    77      0.163376   6 C  s               141      0.137119  10 C  s         
   160      0.136745  11 Cl s               107     -0.125378   8 Cl s         
   205     -0.125378  14 Cl s               126      0.123200   9 C  s         

 Vector   29  Occ=2.000000D+00  E=-1.020825D+00  Symmetry=a"
              MO Center=  4.7D-01, -1.4D-01,  1.1D-16, r^2= 6.0D+00
   Bfn.  Coefficient  Atom+Function         Bfn.  Coefficient  Atom+Function  
  ----- ------------  ---------------      ----- ------------  ---------------
   111      0.429525   8 Cl s               209     -0.429525  14 Cl s         
   107     -0.215484   8 Cl s               205      0.215484  14 Cl s         
    92      0.160586   7 C  s               190     -0.160586  13 C  s         
   115      0.134296   8 Cl s               213     -0.134296  14 Cl s         
    96      0.112582   7 C  s               194     -0.112582  13 C  s         

 Vector   30  Occ=2.000000D+00  E=-1.009832D+00  Symmetry=a'
              MO Center= -1.1D-01, -2.5D+00,  3.7D-15, r^2= 5.0D+00
   Bfn.  Coefficient  Atom+Function         Bfn.  Coefficient  Atom+Function  
  ----- ------------  ---------------      ----- ------------  ---------------
   160      0.480035  11 Cl s               156     -0.240360  11 Cl s         
   141      0.230961  10 C  s               111     -0.215060   8 Cl s         
   209     -0.215060  14 Cl s               145      0.153541  10 C  s         
   164      0.137183  11 Cl s               140     -0.115615  10 C  s         
   162      0.108823  11 Cl py              107      0.107564   8 Cl s         

 Vector   31  Occ=2.000000D+00  E=-9.516120D-01  Symmetry=a'
              MO Center=  3.8D-01, -7.5D-02, -1.5D-14, r^2= 6.5D+00
   Bfn.  Coefficient  Atom+Function         Bfn.  Coefficient  Atom+Function  
  ----- ------------  ---------------      ----- ------------  ---------------
   111      0.368244   8 Cl s               209      0.368244  14 Cl s         
   160      0.223921  11 Cl s                77     -0.201113   6 C  s         
   107     -0.181068   8 Cl s               205     -0.181068  14 Cl s         
    62     -0.155532   5 C  s               115      0.137068   8 Cl s         
   213      0.137068  14 Cl s                81     -0.131692   6 C  s         

 Vector   32  Occ=2.000000D+00  E=-9.268833D-01  Symmetry=a'
              MO Center=  1.1D-01, -4.1D-01, -1.1D-18, r^2= 7.9D+00
   Bfn.  Coefficient  Atom+Function         Bfn.  Coefficient  Atom+Function  
  ----- ------------  ---------------      ----- ------------  ---------------
   160      0.362093  11 Cl s                62      0.236063   5 C  s         
    66      0.199705   5 C  s               156     -0.177410  11 Cl s         
   126     -0.132109   9 C  s               164      0.132058  11 Cl s         
   175     -0.132109  12 C  s               143     -0.123267  10 C  py        
    61     -0.120233   5 C  s                18      0.107329   2 N  px        

 Vector   33  Occ=2.000000D+00  E=-9.065079D-01  Symmetry=a'
              MO Center= -3.1D-01,  3.3D+00, -3.0D-14, r^2= 2.9D+00
   Bfn.  Coefficient  Atom+Function         Bfn.  Coefficient  Atom+Function  
  ----- ------------  ---------------      ----- ------------  ---------------
    32      0.304527   3 C  s                36      0.282553   3 C  s         
    18      0.164337   2 N  px                2     -0.155316   1 C  s         
    31     -0.155991   3 C  s                47     -0.155316   4 C  s         
    19      0.152463   2 N  py                6     -0.142069   1 C  s         
    51     -0.142069   4 C  s               231      0.103584  19 H  s         

 Vector   34  Occ=2.000000D+00  E=-9.045345D-01  Symmetry=a"
              MO Center= -1.1D+00,  2.6D+00,  2.9D-14, r^2= 2.6D+00
   Bfn.  Coefficient  Atom+Function         Bfn.  Coefficient  Atom+Function  
  ----- ------------  ---------------      ----- ------------  ---------------
     2      0.267708   1 C  s                47     -0.267708   4 C  s         
     6      0.244185   1 C  s                51     -0.244185   4 C  s         
    20     -0.229522   2 N  pz                1     -0.137163   1 C  s         
    46      0.137163   4 C  s                24     -0.113973   2 N  pz        
   223      0.096448  15 H  s               239     -0.096448  23 H  s         

 Vector   35  Occ=2.000000D+00  E=-8.720016D-01  Symmetry=a"
              MO Center=  1.9D-01, -1.3D+00,  1.5D-14, r^2= 4.4D+00
   Bfn.  Coefficient  Atom+Function         Bfn.  Coefficient  Atom+Function  
  ----- ------------  ---------------      ----- ------------  ---------------
   111      0.262715   8 Cl s               209     -0.262715  14 Cl s         
   126     -0.243193   9 C  s               175      0.243193  12 C  s         
   130     -0.176860   9 C  s               179      0.176860  12 C  s         
   144     -0.161055  10 C  pz               92     -0.147154   7 C  s         
   190      0.147154  13 C  s                96     -0.126796   7 C  s         

 Vector   36  Occ=2.000000D+00  E=-8.571410D-01  Symmetry=a'
              MO Center=  3.6D-02,  3.4D-01, -2.0D-15, r^2= 8.4D+00
   Bfn.  Coefficient  Atom+Function         Bfn.  Coefficient  Atom+Function  
  ----- ------------  ---------------      ----- ------------  ---------------
   160      0.257435  11 Cl s                77      0.196292   6 C  s         
    81      0.160139   6 C  s                36      0.143295   3 C  s         
    62     -0.137411   5 C  s               141     -0.137605  10 C  s         
    32      0.136538   3 C  s                66     -0.131706   5 C  s         
   156     -0.123892  11 Cl s                21     -0.116889   2 N  s         

 Vector   37  Occ=2.000000D+00  E=-7.928404D-01  Symmetry=a'
              MO Center= -3.5D-01,  1.9D+00, -7.4D-16, r^2= 7.0D+00
   Bfn.  Coefficient  Atom+Function         Bfn.  Coefficient  Atom+Function  
  ----- ------------  ---------------      ----- ------------  ---------------
    21      0.339758   2 N  s                17      0.212350   2 N  s         
     6     -0.173140   1 C  s                51     -0.173140   4 C  s         
    66     -0.171826   5 C  s                36     -0.146023   3 C  s         
   160      0.139983  11 Cl s                 2     -0.139110   1 C  s         
    47     -0.139110   4 C  s                62     -0.139034   5 C  s         

 Vector   38  Occ=2.000000D+00  E=-7.511543D-01  Symmetry=a"
              MO Center=  2.8D-01, -7.6D-01, -5.6D-16, r^2= 4.8D+00
   Bfn.  Coefficient  Atom+Function         Bfn.  Coefficient  Atom+Function  
  ----- ------------  ---------------      ----- ------------  ---------------
    80      0.258842   6 C  pz              111     -0.197653   8 Cl s         
   209      0.197653  14 Cl s                92      0.195043   7 C  s         
   190     -0.195043  13 C  s               144     -0.184106  10 C  pz        
    96      0.181632   7 C  s               194     -0.181632  13 C  s         
   115     -0.138593   8 Cl s               213      0.138593  14 Cl s         

 Vector   39  Occ=2.000000D+00  E=-7.332609D-01  Symmetry=a'
              MO Center=  5.1D-02, -7.5D-01, -7.4D-15, r^2= 7.1D+00
   Bfn.  Coefficient  Atom+Function         Bfn.  Coefficient  Atom+Function  
  ----- ------------  ---------------      ----- ------------  ---------------
   141      0.210371  10 C  s               160     -0.203532  11 Cl s         
   145      0.169405  10 C  s                77      0.143620   6 C  s         
    94      0.141364   7 C  py              192      0.141364  13 C  py        
   164     -0.140188  11 Cl s               129     -0.138470   9 C  pz        
   178      0.138470  12 C  pz              128     -0.135076   9 C  py        

 Vector   40  Occ=2.000000D+00  E=-6.866945D-01  Symmetry=a'
              MO Center= -1.6D-01,  2.1D+00, -3.5D-16, r^2= 4.8D+00
   Bfn.  Coefficient  Atom+Function         Bfn.  Coefficient  Atom+Function  
  ----- ------------  ---------------      ----- ------------  ---------------
    19      0.241121   2 N  py               63      0.189624   5 C  px        
    33     -0.175741   3 C  px               18     -0.173056   2 N  px        
    66      0.169017   5 C  s                23      0.157954   2 N  py        
     4      0.146516   1 C  py               49      0.146516   4 C  py        
    22     -0.114393   2 N  px               64     -0.108211   5 C  py        

 Vector   41  Occ=2.000000D+00  E=-6.809452D-01  Symmetry=a"
              MO Center= -4.9D-01,  2.3D+00, -2.0D-14, r^2= 4.8D+00
   Bfn.  Coefficient  Atom+Function         Bfn.  Coefficient  Atom+Function  
  ----- ------------  ---------------      ----- ------------  ---------------
    20      0.289833   2 N  pz               65      0.184903   5 C  pz        
     3     -0.181996   1 C  px               24      0.182794   2 N  pz        
    48      0.181996   4 C  px               35      0.175553   3 C  pz        
     6      0.136446   1 C  s                51     -0.136446   4 C  s         
    69      0.091541   5 C  pz              144      0.089026  10 C  pz        

 Vector   42  Occ=2.000000D+00  E=-6.785666D-01  Symmetry=a'
              MO Center= -2.7D-01,  2.1D+00,  2.9D-14, r^2= 6.2D+00
   Bfn.  Coefficient  Atom+Function         Bfn.  Coefficient  Atom+Function  
  ----- ------------  ---------------      ----- ------------  ---------------
    34     -0.208295   3 C  py               19      0.205512   2 N  py        
    18      0.200985   2 N  px               79     -0.149934   6 C  py        
     5     -0.145968   1 C  pz               50      0.145968   4 C  pz        
    36     -0.142599   3 C  s                64      0.135964   5 C  py        
    23      0.132261   2 N  py               22      0.126409   2 N  px        

 Vector   43  Occ=2.000000D+00  E=-6.476653D-01  Symmetry=a"
              MO Center=  7.7D-02, -2.4D-01, -2.4D-15, r^2= 6.5D+00
   Bfn.  Coefficient  Atom+Function         Bfn.  Coefficient  Atom+Function  
  ----- ------------  ---------------      ----- ------------  ---------------
   144      0.234532  10 C  pz               80      0.205900   6 C  pz        
   128     -0.188206   9 C  py              177      0.188206  12 C  py        
    94      0.185314   7 C  py              192     -0.185314  13 C  py        
    20     -0.132615   2 N  pz               35     -0.127879   3 C  pz        
    95     -0.114403   7 C  pz              193     -0.114403  13 C  pz        

 Vector   44  Occ=2.000000D+00  E=-6.387759D-01  Symmetry=a'
              MO Center= -3.3D-02, -2.4D-02, -8.5D-15, r^2= 9.3D+00
   Bfn.  Coefficient  Atom+Function         Bfn.  Coefficient  Atom+Function  
  ----- ------------  ---------------      ----- ------------  ---------------
   162      0.162479  11 Cl py              143     -0.139700  10 C  py        
   160     -0.139494  11 Cl s               129      0.136162   9 C  pz        
   178     -0.136162  12 C  pz               63     -0.133165   5 C  px        
    18      0.131632   2 N  px                5     -0.127966   1 C  pz        
    50      0.127966   4 C  pz              114     -0.118893   8 Cl pz        

 Vector   45  Occ=2.000000D+00  E=-6.094285D-01  Symmetry=a'
              MO Center= -3.6D-02,  4.6D-01, -4.0D-14, r^2= 1.1D+01
   Bfn.  Coefficient  Atom+Function         Bfn.  Coefficient  Atom+Function  
  ----- ------------  ---------------      ----- ------------  ---------------
   114      0.221886   8 Cl pz              212     -0.221886  14 Cl pz        
   162     -0.210330  11 Cl py               33     -0.154504   3 C  px        
    96     -0.150887   7 C  s               194     -0.150887  13 C  s         
   145     -0.142270  10 C  s               160      0.120976  11 Cl s         
   164      0.116521  11 Cl s                64     -0.113929   5 C  py        

 Vector   46  Occ=2.000000D+00  E=-5.975488D-01  Symmetry=a"
              MO Center= -6.8D-01,  2.6D+00,  2.0D-15, r^2= 5.4D+00
   Bfn.  Coefficient  Atom+Function         Bfn.  Coefficient  Atom+Function  
  ----- ------------  ---------------      ----- ------------  ---------------
    35     -0.236551   3 C  pz                4      0.234292   1 C  py        
    49     -0.234292   4 C  py              225      0.138166  16 H  s         
   237     -0.138166  22 H  s                39     -0.131073   3 C  pz        
     8      0.126861   1 C  py               53     -0.126861   4 C  py        
    65      0.121828   5 C  pz              231      0.118872  19 H  s         

 Vector   47  Occ=2.000000D+00  E=-5.957080D-01  Symmetry=a'
              MO Center= -5.3D-02,  1.1D+00,  4.2D-14, r^2= 1.1D+01
   Bfn.  Coefficient  Atom+Function         Bfn.  Coefficient  Atom+Function  
  ----- ------------  ---------------      ----- ------------  ---------------
    33      0.210841   3 C  px              114      0.190058   8 Cl pz        
   212     -0.190058  14 Cl pz               81      0.171785   6 C  s         
    34     -0.165666   3 C  py              229     -0.164047  18 H  s         
   129      0.138379   9 C  pz              178     -0.138379  12 C  pz        
    95     -0.121080   7 C  pz              193      0.121080  13 C  pz        

 Vector   48  Occ=2.000000D+00  E=-5.763041D-01  Symmetry=a"
              MO Center=  2.5D-01, -5.4D-01, -1.9D-14, r^2= 7.0D+00
   Bfn.  Coefficient  Atom+Function         Bfn.  Coefficient  Atom+Function  
  ----- ------------  ---------------      ----- ------------  ---------------
   114      0.275900   8 Cl pz              212      0.275900  14 Cl pz        
    95     -0.197975   7 C  pz              193     -0.197975  13 C  pz        
   113      0.155735   8 Cl py              211     -0.155735  14 Cl py        
   129     -0.154126   9 C  pz              178     -0.154126  12 C  pz        
   128      0.150544   9 C  py              177     -0.150544  12 C  py        

 Vector   49  Occ=2.000000D+00  E=-5.730189D-01  Symmetry=a'
              MO Center= -4.6D-01,  2.1D+00, -3.8D-14, r^2= 5.6D+00
   Bfn.  Coefficient  Atom+Function         Bfn.  Coefficient  Atom+Function  
  ----- ------------  ---------------      ----- ------------  ---------------
    18      0.268765   2 N  px                3     -0.213923   1 C  px        
    48     -0.213923   4 C  px               63     -0.186720   5 C  px        
    33     -0.168686   3 C  px               22      0.136095   2 N  px        
    78     -0.131852   6 C  px              225      0.120272  16 H  s         
   237      0.120272  22 H  s               226      0.111995  16 H  s         

 Vector   50  Occ=2.000000D+00  E=-5.688184D-01  Symmetry=a'
              MO Center= -1.7D-02,  4.6D-01,  1.3D-13, r^2= 1.2D+01
   Bfn.  Coefficient  Atom+Function         Bfn.  Coefficient  Atom+Function  
  ----- ------------  ---------------      ----- ------------  ---------------
   162      0.276765  11 Cl py               79     -0.240572   6 C  py        
   143     -0.218917  10 C  py               33     -0.213114   3 C  px        
    64      0.200707   5 C  py              229      0.146882  18 H  s         
    63      0.131190   5 C  px              160     -0.113556  11 Cl s         
   164     -0.110789  11 Cl s                68      0.109121   5 C  py        

 Vector   51  Occ=2.000000D+00  E=-5.680116D-01  Symmetry=a"
              MO Center= -5.0D-01,  3.0D+00, -1.3D-13, r^2= 4.3D+00
   Bfn.  Coefficient  Atom+Function         Bfn.  Coefficient  Atom+Function  
  ----- ------------  ---------------      ----- ------------  ---------------
    35      0.320999   3 C  pz                4      0.211325   1 C  py        
    49     -0.211325   4 C  py              231     -0.171076  19 H  s         
   233      0.171076  20 H  s                39      0.156280   3 C  pz        
   227     -0.153392  17 H  s               235      0.153392  21 H  s         
     3      0.130075   1 C  px               48     -0.130075   4 C  px        

 Vector   52  Occ=2.000000D+00  E=-5.636459D-01  Symmetry=a"
              MO Center= -7.2D-01,  2.5D+00,  5.1D-16, r^2= 4.8D+00
   Bfn.  Coefficient  Atom+Function         Bfn.  Coefficient  Atom+Function  
  ----- ------------  ---------------      ----- ------------  ---------------
     5      0.233734   1 C  pz               50      0.233734   4 C  pz        
   223     -0.174416  15 H  s               239      0.174416  23 H  s         
     3     -0.164998   1 C  px               48      0.164998   4 C  px        
    65     -0.165440   5 C  pz               20     -0.157387   2 N  pz        
   224     -0.134850  15 H  s               240      0.134850  23 H  s         

 Vector   53  Occ=2.000000D+00  E=-5.617538D-01  Symmetry=a'
              MO Center= -7.9D-01,  1.8D+00,  1.5D-14, r^2= 7.0D+00
   Bfn.  Coefficient  Atom+Function         Bfn.  Coefficient  Atom+Function  
  ----- ------------  ---------------      ----- ------------  ---------------
    19      0.283714   2 N  py                4     -0.224146   1 C  py        
    49     -0.224146   4 C  py               34     -0.176295   3 C  py        
    23      0.158707   2 N  py              162     -0.154517  11 Cl py        
   227      0.144149  17 H  s               235      0.144149  21 H  s         
    33     -0.133162   3 C  px              228      0.123458  17 H  s         

 Vector   54  Occ=2.000000D+00  E=-5.597490D-01  Symmetry=a"
              MO Center=  3.0D-01,  1.4D+00,  1.2D-14, r^2= 5.6D+00
   Bfn.  Coefficient  Atom+Function         Bfn.  Coefficient  Atom+Function  
  ----- ------------  ---------------      ----- ------------  ---------------
    65      0.326418   5 C  pz               20     -0.250375   2 N  pz        
   241     -0.177204  24 H  s               243      0.177204  25 H  s         
     5      0.159482   1 C  pz               50      0.159482   4 C  pz        
    69      0.159352   5 C  pz              144     -0.146938  10 C  pz        
   242     -0.147288  24 H  s               244      0.147288  25 H  s         

 Vector   55  Occ=2.000000D+00  E=-5.500834D-01  Symmetry=a'
              MO Center=  4.6D-02, -3.3D-01, -1.5D-14, r^2= 7.3D+00
   Bfn.  Coefficient  Atom+Function         Bfn.  Coefficient  Atom+Function  
  ----- ------------  ---------------      ----- ------------  ---------------
   142      0.196504  10 C  px               93      0.189666   7 C  px        
   191      0.189666  13 C  px               18      0.178913   2 N  px        
   112      0.156390   8 Cl px              210      0.156390  14 Cl px        
   127      0.144775   9 C  px              176      0.144775  12 C  px        
    78      0.142718   6 C  px              162     -0.140214  11 Cl py        

 Vector   56  Occ=2.000000D+00  E=-5.242525D-01  Symmetry=a'
              MO Center=  9.9D-02, -1.2D+00,  8.4D-15, r^2= 7.7D+00
   Bfn.  Coefficient  Atom+Function         Bfn.  Coefficient  Atom+Function  
  ----- ------------  ---------------      ----- ------------  ---------------
   162      0.314071  11 Cl py               64     -0.204690   5 C  py        
    94     -0.201834   7 C  py              192     -0.201834  13 C  py        
   128      0.191672   9 C  py              177      0.191672  12 C  py        
    79      0.189953   6 C  py              143     -0.185022  10 C  py        
   114      0.180840   8 Cl pz              212     -0.180840  14 Cl pz        

 Vector   57  Occ=2.000000D+00  E=-5.142559D-01  Symmetry=a"
              MO Center=  2.1D-01, -1.1D+00,  1.2D-14, r^2= 5.9D+00
   Bfn.  Coefficient  Atom+Function         Bfn.  Coefficient  Atom+Function  
  ----- ------------  ---------------      ----- ------------  ---------------
   129      0.246678   9 C  pz              178      0.246678  12 C  pz        
   144     -0.235290  10 C  pz               80      0.221434   6 C  pz        
   114      0.196079   8 Cl pz              212      0.196079  14 Cl pz        
   245      0.163065  26 H  s               247     -0.163065  27 H  s         
    95     -0.158092   7 C  pz              193     -0.158092  13 C  pz        

 Vector   58  Occ=2.000000D+00  E=-5.020602D-01  Symmetry=a"
              MO Center=  4.3D-01, -9.2D-02,  4.5D-14, r^2= 7.1D+00
[...]
   65 Bend                    13    12    27               120.40383   -0.07598
   66 Bend                    15     1    16               110.27116    0.67517
   67 Bend                    15     1    17               110.02685   -1.72557
   68 Bend                    16     1    17               109.99209    0.44150
   69 Bend                    18     3    19               109.91257   -0.46398
   70 Bend                    18     3    20               109.91257   -0.46398
   71 Bend                    19     3    20               110.07527   -0.48964
   72 Bend                    21     4    22               109.99209    0.44150
   73 Bend                    21     4    23               110.02685   -1.72557
   74 Bend                    22     4    23               110.27116    0.67517
   75 Bend                    24     5    25               108.87272    4.64136
   76 Torsion                  1     2     3    18          59.01945    0.21419
   77 Torsion                  1     2     3    19         -60.86944    0.26877
   78 Torsion                  1     2     3    20         178.90834    0.15961
   79 Torsion                  1     2     4    21          62.27020    0.95476
   80 Torsion                  1     2     4    22         -57.34333    0.44740
   81 Torsion                  1     2     4    23        -177.45955   -0.67550
   82 Torsion                  1     2     5     6         -60.89035    0.52653
   83 Torsion                  1     2     5    24          61.91808   -1.47335
   84 Torsion                  1     2     5    25         176.30123    2.52642
   85 Torsion                  2     5     6     7         -93.44501   -2.10612
   86 Torsion                  2     5     6    13          93.44501    2.10612
   87 Torsion                  3     2     1    15          59.15923   -0.59765
   88 Torsion                  3     2     1    16         -60.95699   -1.72055
   89 Torsion                  3     2     1    17         179.42948   -2.22792
   90 Torsion                  3     2     4    21        -179.42948    2.22792
   91 Torsion                  3     2     4    22          60.95699    1.72055
   92 Torsion                  3     2     4    23         -59.15923    0.59765
   93 Torsion                  3     2     5     6         180.00000    0.00000
   94 Torsion                  3     2     5    24         -57.19157   -1.99989
   95 Torsion                  3     2     5    25          57.19157    1.99989
   96 Torsion                  4     2     1    15         177.45955    0.67550
   97 Torsion                  4     2     1    16          57.34333   -0.44740
   98 Torsion                  4     2     1    17         -62.27020   -0.95476
   99 Torsion                  4     2     3    18         -59.01945   -0.21419
  100 Torsion                  4     2     3    19        -178.90834   -0.15961
  101 Torsion                  4     2     3    20          60.86944   -0.26877
  102 Torsion                  4     2     5     6          60.89035   -0.52653
  103 Torsion                  4     2     5    24        -176.30123   -2.52642
  104 Torsion                  4     2     5    25         -61.91808    1.47335
  105 Torsion                  5     2     1    15         -58.85844   -0.27329
  106 Torsion                  5     2     1    16        -178.97466   -1.39619
  107 Torsion                  5     2     1    17          61.41181   -1.90355
  108 Torsion                  5     2     3    18         180.00000    0.00000
  109 Torsion                  5     2     3    19          60.11111    0.05458
  110 Torsion                  5     2     3    20         -60.11111   -0.05458
  111 Torsion                  5     2     4    21         -61.41181    1.90355
  112 Torsion                  5     2     4    22         178.97466    1.39619
  113 Torsion                  5     2     4    23          58.85844    0.27329
  114 Torsion                  5     6     7     8          -0.14824    1.85355
  115 Torsion                  5     6     7     9        -177.67132    2.79717
  116 Torsion                  5     6    13    12         177.67132   -2.79717
  117 Torsion                  5     6    13    14           0.14824   -1.85355
  118 Torsion                  6     7     9    10           1.37061    0.22355
  119 Torsion                  6     7     9    26        -179.71440   -0.02033
  120 Torsion                  6    13    12    10          -1.37061   -0.22355
  121 Torsion                  6    13    12    27         179.71440    0.02033
  122 Torsion                  7     6     5    24         146.96406    0.98120
  123 Torsion                  7     6     5    25          26.14591   -5.19344
  124 Torsion                  7     6    13    12           4.14405    1.12356
  125 Torsion                  7     6    13    14        -173.37904    2.06718
  126 Torsion                  7     9    10    11        -179.66056    0.23765
  127 Torsion                  7     9    10    12           1.69623    0.81940
  128 Torsion                  8     7     6    13         173.37904   -2.06718
  129 Torsion                  8     7     9    10        -176.26242    1.14663
  130 Torsion                  8     7     9    26           2.65257    0.90275
  131 Torsion                  9     7     6    13          -4.14405   -1.12356
  132 Torsion                  9    10    12    13          -1.69623   -0.81940
  133 Torsion                  9    10    12    27         177.21562   -1.07371
  134 Torsion                 10    12    13    14         176.26242   -1.14663
  135 Torsion                 11    10     9    26           1.42760    0.49195
  136 Torsion                 11    10    12    13         179.66056   -0.23765
  137 Torsion                 11    10    12    27          -1.42760   -0.49195
  138 Torsion                 12    10     9    26        -177.21562    1.07371
  139 Torsion                 13     6     5    24         -26.14591    5.19344
  140 Torsion                 13     6     5    25        -146.96406   -0.98120
  141 Torsion                 14    13    12    27          -2.65257   -0.90275

 ==============================================================================
                                internuclear distances
 ------------------------------------------------------------------------------
       center one      |      center two      | atomic units |  angstroms
 ------------------------------------------------------------------------------
    2 N                |   1 C                |     2.84765  |     1.50691
    3 C                |   2 N                |     2.85069  |     1.50852
    4 C                |   2 N                |     2.84765  |     1.50691
    5 C                |   2 N                |     2.94365  |     1.55771
    6 C                |   5 C                |     2.84148  |     1.50365
    7 C                |   6 C                |     2.67310  |     1.41454
    8 Cl               |   7 C                |     3.31895  |     1.75632
    9 C                |   7 C                |     2.62845  |     1.39091
   10 C                |   9 C                |     2.63536  |     1.39457
   11 Cl               |  10 C                |     3.27699  |     1.73411
   12 C                |  10 C                |     2.63536  |     1.39457
   13 C                |   6 C                |     2.67310  |     1.41454
   13 C                |  12 C                |     2.62845  |     1.39091
   14 Cl               |  13 C                |     3.31895  |     1.75632
   15 H                |   1 C                |     2.05716  |     1.08860
   16 H                |   1 C                |     2.06201  |     1.09117
   17 H                |   1 C                |     2.05866  |     1.08939
   18 H                |   3 C                |     2.06171  |     1.09101
   19 H                |   3 C                |     2.06163  |     1.09097
   20 H                |   3 C                |     2.06163  |     1.09097
   21 H                |   4 C                |     2.05866  |     1.08939
   22 H                |   4 C                |     2.06201  |     1.09117
   23 H                |   4 C                |     2.05716  |     1.08860
   24 H                |   5 C                |     2.06041  |     1.09032
   25 H                |   5 C                |     2.06041  |     1.09032
   26 H                |   9 C                |     2.04686  |     1.08315
   27 H                |  12 C                |     2.04686  |     1.08315
 ------------------------------------------------------------------------------
                         number of included internuclear distances:         27
 ==============================================================================



 ==============================================================================
                                 internuclear angles
 ------------------------------------------------------------------------------
        center 1       |       center 2       |       center 3       |  degrees
 ------------------------------------------------------------------------------
    2 N                |   1 C                |  15 H                |   109.28
    2 N                |   1 C                |  16 H                |   108.24
    2 N                |   1 C                |  17 H                |   108.99
   15 H                |   1 C                |  16 H                |   110.27
   15 H                |   1 C                |  17 H                |   110.03
   16 H                |   1 C                |  17 H                |   109.99
    1 C                |   2 N                |   3 C                |   108.86
    1 C                |   2 N                |   4 C                |   108.45
    1 C                |   2 N                |   5 C                |   111.78
    3 C                |   2 N                |   4 C                |   108.86
    3 C                |   2 N                |   5 C                |   107.03
    4 C                |   2 N                |   5 C                |   111.78
    2 N                |   3 C                |  18 H                |   108.82
    2 N                |   3 C                |  19 H                |   109.05
    2 N                |   3 C                |  20 H                |   109.05
   18 H                |   3 C                |  19 H                |   109.91
   18 H                |   3 C                |  20 H                |   109.91
   19 H                |   3 C                |  20 H                |   110.08
    2 N                |   4 C                |  21 H                |   108.99
    2 N                |   4 C                |  22 H                |   108.24
    2 N                |   4 C                |  23 H                |   109.28
   21 H                |   4 C                |  22 H                |   109.99
   21 H                |   4 C                |  23 H                |   110.03
   22 H                |   4 C                |  23 H                |   110.27
    2 N                |   5 C                |   6 C                |   116.96
    2 N                |   5 C                |  24 H                |   104.57
    2 N                |   5 C                |  25 H                |   104.57
    6 C                |   5 C                |  24 H                |   110.69
    6 C                |   5 C                |  25 H                |   110.69
   24 H                |   5 C                |  25 H                |   108.87
    5 C                |   6 C                |   7 C                |   122.05
    5 C                |   6 C                |  13 C                |   122.05
    7 C                |   6 C                |  13 C                |   115.58
    6 C                |   7 C                |   8 Cl               |   120.96
    6 C                |   7 C                |   9 C                |   122.81
    8 Cl               |   7 C                |   9 C                |   116.19
    7 C                |   9 C                |  10 C                |   118.90
    7 C                |   9 C                |  26 H                |   120.40
   10 C                |   9 C                |  26 H                |   120.69
    9 C                |  10 C                |  11 Cl               |   119.57
    9 C                |  10 C                |  12 C                |   120.85
   11 Cl               |  10 C                |  12 C                |   119.57
   10 C                |  12 C                |  13 C                |   118.90
   10 C                |  12 C                |  27 H                |   120.69
   13 C                |  12 C                |  27 H                |   120.40
    6 C                |  13 C                |  12 C                |   122.81
    6 C                |  13 C                |  14 Cl               |   120.96
   12 C                |  13 C                |  14 Cl               |   116.19
 ------------------------------------------------------------------------------
                            number of included internuclear angles:         48
 ==============================================================================




 Task  times  cpu:     2218.5s     wall:     2218.5s


                                NWChem Input Module
                                -------------------




                     NWChem Electrostatic Potential Fit Module
                     -----------------------------------------


 Atom parameters

 Number of atoms is                                   27
 Number of basis functions is                        248


 Grid parameters

 Maximum number of grid points is                   7668
 Number of grid points is                           7667
 Grid range                                     0.200000 nm
 Grid spacing                                   0.025000 nm
 Probe radius                                   0.100000 nm
 Atom radius factor                             1.000000

 Atomic radii

    1    0.130000
    6    0.177000
    7    0.170000
   17    0.199000
 FASTESP  F
  using M.O. file = ./286.movecs


    Atom              Coordinates                           Charge

                                                  ESP   
                                                        
 
    1 C    -0.126753    0.253124   -0.122256   -0.284593
    2 N    -0.039933    0.268073    0.000000    0.299182
    3 C     0.020949    0.406093    0.000000   -0.428935
    4 C    -0.126753    0.253124    0.122256   -0.271530
    5 C     0.077934    0.166229    0.000000   -0.012555
    6 C     0.041899    0.020246    0.000000   -0.045239
    7 C     0.030907   -0.054350    0.119682    0.110467
    8 Cl    0.059518    0.020696    0.275874   -0.067311
    9 C     0.002310   -0.190461    0.121288   -0.231033
   10 C    -0.013583   -0.257430    0.000000    0.249743
   11 Cl   -0.050140   -0.426943    0.000000   -0.082019
   12 C     0.002310   -0.190461   -0.121288   -0.235342
   13 C     0.030907   -0.054350   -0.119682    0.117926
   14 Cl    0.059518    0.020696   -0.275874   -0.075494
   15 H    -0.066157    0.268179   -0.211431    0.148585
   16 H    -0.205948    0.328024   -0.117275    0.153148
   17 H    -0.170030    0.153153   -0.122999    0.125884
   18 H    -0.059331    0.479972    0.000000    0.187543
   19 H     0.082336    0.417927   -0.089408    0.183913
   20 H     0.082336    0.417927    0.089408    0.184409
   21 H    -0.170030    0.153153    0.122999    0.122038
   22 H    -0.205948    0.328024    0.117275    0.150179
   23 H    -0.066157    0.268179    0.211431    0.143362
   24 H     0.136067    0.191565   -0.088694    0.085493
   25 H     0.136067    0.191565    0.088694    0.083069
   26 H    -0.005672   -0.243692    0.215282    0.193301
   27 H    -0.005672   -0.243692   -0.215282    0.195810
                                            ------------
                                                1.000000

 Dipole moment                                  1.326212

 Quadrupole moment Qxx                        -16.624749
                   Qyy                         29.336721
                   Qzz                        -12.711972

 RMS deviation kJ/mol                           0.074482

 RRMS %                                         1.781138

 Task  times  cpu:       28.8s     wall:       28.8s


                                NWChem Input Module
                                -------------------


 Summary of allocated global arrays
-----------------------------------
  No active global arrays



                         GA Statistics for process    0
                         ------------------------------

       create   destroy   get      put      acc     scatter   gather  read&inc
calls: 2892     2892     7.72e+06 3.94e+05 3.59e+06    0        0     2.65e+05 
number of processes/call 0.00e+00 0.00e+00 0.00e+00 0.00e+00 0.00e+00
bytes total:             8.49e+09 1.18e+09 3.19e+09 0.00e+00 0.00e+00 2.12e+06
bytes remote:            0.00e+00 0.00e+00 0.00e+00 0.00e+00 0.00e+00 0.00e+00
Max memory consumed for GA by this process: 19189248 bytes

MA_summarize_allocated_blocks: starting scan ...
MA_summarize_allocated_blocks: scan completed: 0 heap blocks, 0 stack blocks
MA usage statistics:

	allocation statistics:
					      heap	     stack
					      ----	     -----
	current number of blocks	         0	         0
	maximum number of blocks	        25	        57
	current total bytes		         0	         0
	maximum total bytes		  19067480	  35900200
	maximum total K-bytes		     19068	     35901
	maximum total M-bytes		        20	        36


                                     CITATION
                                     --------
                Please cite the following reference when publishing
                           results obtained with NWChem:

                 M. Valiev, E.J. Bylaska, N. Govind, K. Kowalski,
              T.P. Straatsma, H.J.J. van Dam, D. Wang, J. Nieplocha,
                        E. Apra, T.L. Windus, W.A. de Jong
                 "NWChem: a comprehensive and scalable open-source
                  solution for large scale molecular simulations"
                      Comput. Phys. Commun. 181, 1477 (2010)
                           doi:10.1016/j.cpc.2010.04.018

                                      AUTHORS
                                      -------
     E. Apra, E. J. Bylaska, N. Govind, K. Kowalski, M. Valiev, W. A. de Jong,
      T. P. Straatsma, H. J. J. van Dam, D. Wang, T. L. Windus, N. P. Bauman,
       A. Panyala, J. Hammond, J. Autschbach, K. Bhaskaran-Nair, J. Brabec,
    K. Lopata, S. A. Fischer, S. Krishnamoorthy, M. Jacquelin, W. Ma, M. Klemm,
       O. Villa, Y. Chen, V. Anisimov, F. Aquino, S. Hirata, M. T. Hackler,
           Eric Hermes, L. Jensen, J. E. Moore, J. C. Becca, V. Konjkov,
            D. Mejia-Rodriguez, T. Risthaus, M. Malagoli, A. Marenich,
   A. Otero-de-la-Roza, J. Mullin, P. Nichols, R. Peverati, J. Pittner, Y. Zhao,
        P.-D. Fan, A. Fonari, M. J. Williamson, R. J. Harrison, J. R. Rehr,
      M. Dupuis, D. Silverstein, D. M. A. Smith, J. Nieplocha, V. Tipparaju,
      M. Krishnan, B. E. Van Kuiken, A. Vazquez-Mayagoitia, M. Swart, Q. Wu,
   T. Van Voorhis, A. A. Auer, M. Nooijen, L. D. Crosby, E. Brown, G. Cisneros,
     G. I. Fann, H. Fruchtl, J. Garza, K. Hirao, R. A. Kendall, J. A. Nichols,
       K. Tsemekhman, K. Wolinski, J. Anchell, D. E. Bernholdt, P. Borowski,
       T. Clark, D. Clerc, H. Dachsel, M. J. O. Deegan, K. Dyall, D. Elwood,
      E. Glendening, M. Gutowski, A. C. Hess, J. Jaffe, B. G. Johnson, J. Ju,
        R. Kobayashi, R. Kutteh, Z. Lin, R. Littlefield, X. Long, B. Meng,
      T. Nakajima, S. Niu, L. Pollack, M. Rosing, K. Glaesemann, G. Sandrone,
      M. Stave, H. Taylor, G. Thomas, J. H. van Lenthe, A. T. Wong, Z. Zhang.

 Total times  cpu:     2247.5s     wall:     2247.5s
